Program Version,EnergyPlus, Version 23.1.0-87ed9199d4, YMD=2023.05.31 15:52
1,5,Environment Title[],Latitude[deg],Longitude[deg],Time Zone[],Elevation[m]
2,8,Day of Simulation[],Month[],Day of Month[],DST Indicator[1=yes 0=no],Hour[],StartMinute[],EndMinute[],DayType
3,5,Cumulative Day of Simulation[],Month[],Day of Month[],DST Indicator[1=yes 0=no],DayType  ! When Daily Report Variables Requested
4,2,Cumulative Days of Simulation[],Month[]  ! When Monthly Report Variables Requested
5,1,Cumulative Days of Simulation[] ! When Run Period Report Variables Requested
6,1,Calendar Year of Simulation[] ! When Annual Report Variables Requested
8,1,Electricity:Facility [J] !TimeStep
1603,1,NaturalGas:Facility [J] !TimeStep
End of Data Dictionary
1,KODIAK ANN CLG .4% CONDNS DB=>MWB HVAC Sizing Pass 1,  57.75,-152.50,  -9.00,   5.00
2,1, 8,21, 0, 1, 0.00,10.00,SummerDesignDay
8,27109358.763680603
1603,0.0
2,1, 8,21, 0, 1,10.00,20.00,SummerDesignDay
8,27110850.31114386
1603,0.0
2,1, 8,21, 0, 1,20.00,30.00,SummerDesignDay
8,27111514.34140162
1603,0.0
2,1, 8,21, 0, 1,30.00,40.00,SummerDesignDay
8,27111494.55794088
1603,0.0
2,1, 8,21, 0, 1,40.00,50.00,SummerDesignDay
8,27110911.071987253
1603,0.0
2,1, 8,21, 0, 1,50.00,60.00,SummerDesignDay
8,27109854.55977784
1603,0.0
2,1, 8,21, 0, 2, 0.00,10.00,SummerDesignDay
8,27110011.544647314
1603,0.0
2,1, 8,21, 0, 2,10.00,20.00,SummerDesignDay
8,27109832.50096276
1603,0.0
2,1, 8,21, 0, 2,20.00,30.00,SummerDesignDay
8,27109378.575420395
1603,0.0
2,1, 8,21, 0, 2,30.00,40.00,SummerDesignDay
8,27108698.294035982
1603,927849.3503555896
2,1, 8,21, 0, 2,40.00,50.00,SummerDesignDay
8,27107830.869553555
1603,979492.3849267623
2,1, 8,21, 0, 2,50.00,60.00,SummerDesignDay
8,27106806.28090035
1603,0.0
2,1, 8,21, 0, 3, 0.00,10.00,SummerDesignDay
8,27106449.69084072
1603,0.0
2,1, 8,21, 0, 3,10.00,20.00,SummerDesignDay
8,27105981.27565434
1603,0.0
2,1, 8,21, 0, 3,20.00,30.00,SummerDesignDay
8,27105421.99578852
1603,0.0
2,1, 8,21, 0, 3,30.00,40.00,SummerDesignDay
8,27104787.922319215
1603,0.0
2,1, 8,21, 0, 3,40.00,50.00,SummerDesignDay
8,27104091.586631928
1603,0.0
2,1, 8,21, 0, 3,50.00,60.00,SummerDesignDay
8,27103342.003239136
1603,0.0
2,1, 8,21, 0, 4, 0.00,10.00,SummerDesignDay
8,27102545.54965573
1603,0.0
2,1, 8,21, 0, 4,10.00,20.00,SummerDesignDay
8,27101706.973279692
1603,0.0
2,1, 8,21, 0, 4,20.00,30.00,SummerDesignDay
8,27100829.894212447
1603,1028324.8514027755
2,1, 8,21, 0, 4,30.00,40.00,SummerDesignDay
8,27099952.14667217
1603,879026.2583583235
2,1, 8,21, 0, 4,40.00,50.00,SummerDesignDay
8,27099075.38277015
1603,0.0
2,1, 8,21, 0, 4,50.00,60.00,SummerDesignDay
8,27098153.962111685
1603,0.0
2,1, 8,21, 0, 5, 0.00,10.00,SummerDesignDay
8,27098063.781223934
1603,0.0
2,1, 8,21, 0, 5,10.00,20.00,SummerDesignDay
8,27097938.274098136
1603,0.0
2,1, 8,21, 0, 5,20.00,30.00,SummerDesignDay
8,27097783.96559603
1603,0.0
2,1, 8,21, 0, 5,30.00,40.00,SummerDesignDay
8,27097606.444473013
1603,0.0
2,1, 8,21, 0, 5,40.00,50.00,SummerDesignDay
8,27097409.45637591
1603,0.0
2,1, 8,21, 0, 5,50.00,60.00,SummerDesignDay
8,28351911.30911416
1603,0.0
2,1, 8,21, 0, 6, 0.00,10.00,SummerDesignDay
8,27100451.808649816
1603,48742.92039326055
2,1, 8,21, 0, 6,10.00,20.00,SummerDesignDay
8,27103719.10282965
1603,1080011.048428823
2,1, 8,21, 0, 6,20.00,30.00,SummerDesignDay
8,27107015.21802747
1603,778585.441609072
2,1, 8,21, 0, 6,30.00,40.00,SummerDesignDay
8,27110355.8505091
1603,0.0
2,1, 8,21, 0, 6,40.00,50.00,SummerDesignDay
8,27113750.45552949
1603,0.0
2,1, 8,21, 0, 6,50.00,60.00,SummerDesignDay
8,26755894.384321075
1603,0.0
2,1, 8,21, 0, 7, 0.00,10.00,SummerDesignDay
8,32138599.19857463
1603,160191.1589769484
2,1, 8,21, 0, 7,10.00,20.00,SummerDesignDay
8,30302790.99042077
1603,1080011.048428823
2,1, 8,21, 0, 7,20.00,30.00,SummerDesignDay
8,28804758.509098954
1603,1080011.048428823
2,1, 8,21, 0, 7,30.00,40.00,SummerDesignDay
8,30444106.095117114
1603,1080011.048428823
2,1, 8,21, 0, 7,40.00,50.00,SummerDesignDay
8,29877534.586124524
1603,1080011.048428823
2,1, 8,21, 0, 7,50.00,60.00,SummerDesignDay
8,29851210.265491914
1603,1080011.048428823
2,1, 8,21, 0, 8, 0.00,10.00,SummerDesignDay
8,29881210.51922461
1603,1080011.048428823
2,1, 8,21, 0, 8,10.00,20.00,SummerDesignDay
8,29898438.472388912
1603,1080011.048428823
2,1, 8,21, 0, 8,20.00,30.00,SummerDesignDay
8,29987874.45369344
1603,1080011.048428823
2,1, 8,21, 0, 8,30.00,40.00,SummerDesignDay
8,29996528.22597172
1603,1080011.048428823
2,1, 8,21, 0, 8,40.00,50.00,SummerDesignDay
8,30107817.912439883
1603,1080011.048428823
2,1, 8,21, 0, 8,50.00,60.00,SummerDesignDay
8,30155596.0158905
1603,1080011.048428823
2,1, 8,21, 0, 9, 0.00,10.00,SummerDesignDay
8,30248735.596332528
1603,1080011.048428823
2,1, 8,21, 0, 9,10.00,20.00,SummerDesignDay
8,30338384.60685698
1603,1080011.048428823
2,1, 8,21, 0, 9,20.00,30.00,SummerDesignDay
8,30438341.028262433
1603,1080011.048428823
2,1, 8,21, 0, 9,30.00,40.00,SummerDesignDay
8,30543011.38093189
1603,1080011.048428823
2,1, 8,21, 0, 9,40.00,50.00,SummerDesignDay
8,30649290.190171678
1603,1080011.048428823
2,1, 8,21, 0, 9,50.00,60.00,SummerDesignDay
8,30758711.63471987
1603,1080011.048428823
2,1, 8,21, 0,10, 0.00,10.00,SummerDesignDay
8,30861410.66053302
1603,1080011.048428823
2,1, 8,21, 0,10,10.00,20.00,SummerDesignDay
8,30964993.382749964
1603,1080011.048428823
2,1, 8,21, 0,10,20.00,30.00,SummerDesignDay
8,31069153.99591495
1603,1080011.048428823
2,1, 8,21, 0,10,30.00,40.00,SummerDesignDay
8,31144164.04202405
1603,1080011.048428823
2,1, 8,21, 0,10,40.00,50.00,SummerDesignDay
8,32554246.357590426
1603,1080011.048428823
2,1, 8,21, 0,10,50.00,60.00,SummerDesignDay
8,31374367.83792796
1603,1080011.048428823
2,1, 8,21, 0,11, 0.00,10.00,SummerDesignDay
8,31479383.754572023
1603,1080011.048428823
2,1, 8,21, 0,11,10.00,20.00,SummerDesignDay
8,31573170.714760493
1603,1080011.048428823
2,1, 8,21, 0,11,20.00,30.00,SummerDesignDay
8,31667136.739785653
1603,1080011.048428823
2,1, 8,21, 0,11,30.00,40.00,SummerDesignDay
8,31759103.424325917
1603,1080011.048428823
2,1, 8,21, 0,11,40.00,50.00,SummerDesignDay
8,31851166.945435334
1603,1080011.048428823
2,1, 8,21, 0,11,50.00,60.00,SummerDesignDay
8,31942336.02223386
1603,1080011.048428823
2,1, 8,21, 0,12, 0.00,10.00,SummerDesignDay
8,32010824.080564607
1603,1080011.048428823
2,1, 8,21, 0,12,10.00,20.00,SummerDesignDay
8,32077829.943498634
1603,1080011.048428823
2,1, 8,21, 0,12,20.00,30.00,SummerDesignDay
8,32143055.639930937
1603,1080011.048428823
2,1, 8,21, 0,12,30.00,40.00,SummerDesignDay
8,32206419.527578656
1603,1080011.048428823
2,1, 8,21, 0,12,40.00,50.00,SummerDesignDay
8,32267719.445082176
1603,1080011.048428823
2,1, 8,21, 0,12,50.00,60.00,SummerDesignDay
8,32327096.633025724
1603,1080011.048428823
2,1, 8,21, 0,13, 0.00,10.00,SummerDesignDay
8,32375810.012351315
1603,1080011.048428823
2,1, 8,21, 0,13,10.00,20.00,SummerDesignDay
8,32422709.08468954
1603,1080011.048428823
2,1, 8,21, 0,13,20.00,30.00,SummerDesignDay
8,32468001.81806332
1603,1080011.048428823
2,1, 8,21, 0,13,30.00,40.00,SummerDesignDay
8,32512061.898892097
1603,1080011.048428823
2,1, 8,21, 0,13,40.00,50.00,SummerDesignDay
8,32555382.781032935
1603,1080011.048428823
2,1, 8,21, 0,13,50.00,60.00,SummerDesignDay
8,32598547.514747404
1603,1080011.048428823
2,1, 8,21, 0,14, 0.00,10.00,SummerDesignDay
8,32628759.710535582
1603,1080011.048428823
2,1, 8,21, 0,14,10.00,20.00,SummerDesignDay
8,32660390.01487302
1603,1080011.048428823
2,1, 8,21, 0,14,20.00,30.00,SummerDesignDay
8,32693354.351859342
1603,1080011.048428823
2,1, 8,21, 0,14,30.00,40.00,SummerDesignDay
8,32727270.992438495
1603,1080011.048428823
2,1, 8,21, 0,14,40.00,50.00,SummerDesignDay
8,32761547.022670574
1603,1080011.048428823
2,1, 8,21, 0,14,50.00,60.00,SummerDesignDay
8,32795883.237951722
1603,1080011.048428823
2,1, 8,21, 0,15, 0.00,10.00,SummerDesignDay
8,32807174.88943737
1603,1080011.048428823
2,1, 8,21, 0,15,10.00,20.00,SummerDesignDay
8,32817474.61500239
1603,1080011.048428823
2,1, 8,21, 0,15,20.00,30.00,SummerDesignDay
8,32826427.335374847
1603,1080011.048428823
2,1, 8,21, 0,15,30.00,40.00,SummerDesignDay
8,34088539.73075375
1603,1080011.048428823
2,1, 8,21, 0,15,40.00,50.00,SummerDesignDay
8,32839624.991197407
1603,1080011.048428823
2,1, 8,21, 0,15,50.00,60.00,SummerDesignDay
8,32843690.13656913
1603,1080011.048428823
2,1, 8,21, 0,16, 0.00,10.00,SummerDesignDay
8,32818843.587805524
1603,1080011.048428823
2,1, 8,21, 0,16,10.00,20.00,SummerDesignDay
8,32792118.418750703
1603,1080011.048428823
2,1, 8,21, 0,16,20.00,30.00,SummerDesignDay
8,32763336.68572086
1603,1080011.048428823
2,1, 8,21, 0,16,30.00,40.00,SummerDesignDay
8,32732490.833266
1603,1080011.048428823
2,1, 8,21, 0,16,40.00,50.00,SummerDesignDay
8,32700761.143185955
1603,1080011.048428823
2,1, 8,21, 0,16,50.00,60.00,SummerDesignDay
8,32666148.879682217
1603,1080011.048428823
2,1, 8,21, 0,17, 0.00,10.00,SummerDesignDay
8,32620396.41099256
1603,1080011.048428823
2,1, 8,21, 0,17,10.00,20.00,SummerDesignDay
8,32572400.17388381
1603,1080011.048428823
2,1, 8,21, 0,17,20.00,30.00,SummerDesignDay
8,32522100.3160177
1603,1080011.048428823
2,1, 8,21, 0,17,30.00,40.00,SummerDesignDay
8,32469481.84308415
1603,1080011.048428823
2,1, 8,21, 0,17,40.00,50.00,SummerDesignDay
8,32414397.130396284
1603,1080011.048428823
2,1, 8,21, 0,17,50.00,60.00,SummerDesignDay
8,32357019.519718006
1603,1080011.048428823
2,1, 8,21, 0,18, 0.00,10.00,SummerDesignDay
8,32288645.231316827
1603,1080011.048428823
2,1, 8,21, 0,18,10.00,20.00,SummerDesignDay
8,32218213.241778042
1603,1080011.048428823
2,1, 8,21, 0,18,20.00,30.00,SummerDesignDay
8,32145778.598018076
1603,1080011.048428823
2,1, 8,21, 0,18,30.00,40.00,SummerDesignDay
8,32071595.567414936
1603,1080011.048428823
2,1, 8,21, 0,18,40.00,50.00,SummerDesignDay
8,31995977.68601296
1603,1080011.048428823
2,1, 8,21, 0,18,50.00,60.00,SummerDesignDay
8,31919146.775202174
1603,1080011.048428823
2,1, 8,21, 0,19, 0.00,10.00,SummerDesignDay
8,31820223.532990213
1603,1080011.048428823
2,1, 8,21, 0,19,10.00,20.00,SummerDesignDay
8,31720763.62358953
1603,1080011.048428823
2,1, 8,21, 0,19,20.00,30.00,SummerDesignDay
8,31621387.33899002
1603,1080011.048428823
2,1, 8,21, 0,19,30.00,40.00,SummerDesignDay
8,31522156.353190374
1603,1080011.048428823
2,1, 8,21, 0,19,40.00,50.00,SummerDesignDay
8,31424071.552562922
1603,1080011.048428823
2,1, 8,21, 0,19,50.00,60.00,SummerDesignDay
8,31330336.41372959
1603,1080011.048428823
2,1, 8,21, 0,20, 0.00,10.00,SummerDesignDay
8,31258062.721444923
1603,1080011.048428823
2,1, 8,21, 0,20,10.00,20.00,SummerDesignDay
8,31188554.974057436
1603,1080011.048428823
2,1, 8,21, 0,20,20.00,30.00,SummerDesignDay
8,31116991.43287153
1603,1080011.048428823
2,1, 8,21, 0,20,30.00,40.00,SummerDesignDay
8,32295610.063288115
1603,1080011.048428823
2,1, 8,21, 0,20,40.00,50.00,SummerDesignDay
8,30959945.939673256
1603,1080011.048428823
2,1, 8,21, 0,20,50.00,60.00,SummerDesignDay
8,30872748.401592653
1603,1080011.048428823
2,1, 8,21, 0,21, 0.00,10.00,SummerDesignDay
8,30789114.070049264
1603,1080011.048428823
2,1, 8,21, 0,21,10.00,20.00,SummerDesignDay
8,30673263.301593184
1603,1080011.048428823
2,1, 8,21, 0,21,20.00,30.00,SummerDesignDay
8,30629163.333238482
1603,1080011.048428823
2,1, 8,21, 0,21,30.00,40.00,SummerDesignDay
8,31050174.461594064
1603,1080011.048428823
2,1, 8,21, 0,21,40.00,50.00,SummerDesignDay
8,30974753.44466024
1603,1080011.048428823
2,1, 8,21, 0,21,50.00,60.00,SummerDesignDay
8,30896120.825872052
1603,41359.8347919918
2,1, 8,21, 0,22, 0.00,10.00,SummerDesignDay
8,30823896.89678273
1603,248164.8291745152
2,1, 8,21, 0,22,10.00,20.00,SummerDesignDay
8,30756689.29669591
1603,1080011.048428823
2,1, 8,21, 0,22,20.00,30.00,SummerDesignDay
8,30693559.205565542
1603,1080011.048428823
2,1, 8,21, 0,22,30.00,40.00,SummerDesignDay
8,30634003.80471127
1603,1080011.048428823
2,1, 8,21, 0,22,40.00,50.00,SummerDesignDay
8,30577232.59642541
1603,1080011.048428823
2,1, 8,21, 0,22,50.00,60.00,SummerDesignDay
8,30496476.601528544
1603,1080011.048428823
2,1, 8,21, 0,23, 0.00,10.00,SummerDesignDay
8,26269226.413301643
1603,1080011.0484288232
2,1, 8,21, 0,23,10.00,20.00,SummerDesignDay
8,26269226.413301643
1603,1080011.048428823
2,1, 8,21, 0,23,20.00,30.00,SummerDesignDay
8,26269226.413301643
1603,772220.8979032417
2,1, 8,21, 0,23,30.00,40.00,SummerDesignDay
8,26816630.96381954
1603,0.0
2,1, 8,21, 0,23,40.00,50.00,SummerDesignDay
8,27929961.32463967
1603,464649.98245687975
2,1, 8,21, 0,23,50.00,60.00,SummerDesignDay
8,27068915.571641993
1603,1080011.048428823
2,1, 8,21, 0,24, 0.00,10.00,SummerDesignDay
8,27234073.517103218
1603,1080011.048428823
2,1, 8,21, 0,24,10.00,20.00,SummerDesignDay
8,27281146.77900764
1603,1080011.048428823
2,1, 8,21, 0,24,20.00,30.00,SummerDesignDay
8,27289853.997570034
1603,1080011.048428823
2,1, 8,21, 0,24,30.00,40.00,SummerDesignDay
8,27296327.556791335
1603,1080011.048428823
2,1, 8,21, 0,24,40.00,50.00,SummerDesignDay
8,27300946.103779003
1603,1080011.048428823
2,1, 8,21, 0,24,50.00,60.00,SummerDesignDay
8,27304135.711802114
1603,1046104.1634404354
1,KODIAK ANN CLG .4% CONDNS WB=>MDB HVAC Sizing Pass 1,  57.75,-152.50,  -9.00,   5.00
2,1, 8,21, 0, 1, 0.00,10.00,SummerDesignDay
8,27007097.521549962
1603,0.0
2,1, 8,21, 0, 1,10.00,20.00,SummerDesignDay
8,27008541.781634517
1603,0.0
2,1, 8,21, 0, 1,20.00,30.00,SummerDesignDay
8,27009179.834324308
1603,0.0
2,1, 8,21, 0, 1,30.00,40.00,SummerDesignDay
8,27009139.204009395
1603,0.0
2,1, 8,21, 0, 1,40.00,50.00,SummerDesignDay
8,27008540.977888677
1603,0.0
2,1, 8,21, 0, 1,50.00,60.00,SummerDesignDay
8,27007474.550357632
1603,0.0
2,1, 8,21, 0, 2, 0.00,10.00,SummerDesignDay
8,27007620.31956524
1603,0.0
2,1, 8,21, 0, 2,10.00,20.00,SummerDesignDay
8,27007434.405150864
1603,0.0
2,1, 8,21, 0, 2,20.00,30.00,SummerDesignDay
8,27006974.482610047
1603,0.0
2,1, 8,21, 0, 2,30.00,40.00,SummerDesignDay
8,27006287.87645333
1603,927849.3503555896
2,1, 8,21, 0, 2,40.00,50.00,SummerDesignDay
8,27005412.52508355
1603,979492.3849267623
2,1, 8,21, 0, 2,50.00,60.00,SummerDesignDay
8,27004377.328212097
1603,0.0
2,1, 8,21, 0, 3, 0.00,10.00,SummerDesignDay
8,27004005.30261207
1603,0.0
2,1, 8,21, 0, 3,10.00,20.00,SummerDesignDay
8,27003517.32914043
1603,0.0
2,1, 8,21, 0, 3,20.00,30.00,SummerDesignDay
8,27002932.845503893
1603,0.0
2,1, 8,21, 0, 3,30.00,40.00,SummerDesignDay
8,27002267.447200697
1603,0.0
2,1, 8,21, 0, 3,40.00,50.00,SummerDesignDay
8,27001533.34040924
1603,0.0
2,1, 8,21, 0, 3,50.00,60.00,SummerDesignDay
8,27000739.187369246
1603,0.0
2,1, 8,21, 0, 4, 0.00,10.00,SummerDesignDay
8,26999891.154908597
1603,0.0
2,1, 8,21, 0, 4,10.00,20.00,SummerDesignDay
8,26998993.76942061
1603,0.0
2,1, 8,21, 0, 4,20.00,30.00,SummerDesignDay
8,26998050.69161328
1603,1028324.8514027755
2,1, 8,21, 0, 4,30.00,40.00,SummerDesignDay
8,26997064.876393516
1603,879026.2583583235
2,1, 8,21, 0, 4,40.00,50.00,SummerDesignDay
8,26996038.814216886
1603,0.0
2,1, 8,21, 0, 4,50.00,60.00,SummerDesignDay
8,26994974.511638664
1603,0.0
2,1, 8,21, 0, 5, 0.00,10.00,SummerDesignDay
8,26994668.14510712
1603,0.0
2,1, 8,21, 0, 5,10.00,20.00,SummerDesignDay
8,26994332.03478139
1603,0.0
2,1, 8,21, 0, 5,20.00,30.00,SummerDesignDay
8,26993972.66678467
1603,0.0
2,1, 8,21, 0, 5,30.00,40.00,SummerDesignDay
8,26993595.234507013
1603,0.0
2,1, 8,21, 0, 5,40.00,50.00,SummerDesignDay
8,26993203.07429586
1603,0.0
2,1, 8,21, 0, 5,50.00,60.00,SummerDesignDay
8,28247514.063403793
1603,0.0
2,1, 8,21, 0, 6, 0.00,10.00,SummerDesignDay
8,26995550.117042564
1603,48742.92039326055
2,1, 8,21, 0, 6,10.00,20.00,SummerDesignDay
8,26998314.5895814
1603,1080011.048428823
2,1, 8,21, 0, 6,20.00,30.00,SummerDesignDay
8,27001111.383038726
1603,778585.441609072
2,1, 8,21, 0, 6,30.00,40.00,SummerDesignDay
8,27003955.851052605
1603,0.0
2,1, 8,21, 0, 6,40.00,50.00,SummerDesignDay
8,27006857.032604426
1603,0.0
2,1, 8,21, 0, 6,50.00,60.00,SummerDesignDay
8,26648506.218817603
1603,0.0
2,1, 8,21, 0, 7, 0.00,10.00,SummerDesignDay
8,31369829.46857923
1603,160199.44229734642
2,1, 8,21, 0, 7,10.00,20.00,SummerDesignDay
8,29892987.220131494
1603,1080011.048428823
2,1, 8,21, 0, 7,20.00,30.00,SummerDesignDay
8,28266292.07546309
1603,1080011.048428823
2,1, 8,21, 0, 7,30.00,40.00,SummerDesignDay
8,29968917.93656422
1603,1080011.048428823
2,1, 8,21, 0, 7,40.00,50.00,SummerDesignDay
8,29449540.135460086
1603,1080011.048428823
2,1, 8,21, 0, 7,50.00,60.00,SummerDesignDay
8,29420378.48645913
1603,1080011.048428823
2,1, 8,21, 0, 8, 0.00,10.00,SummerDesignDay
8,29453157.312963326
1603,1080011.048428823
2,1, 8,21, 0, 8,10.00,20.00,SummerDesignDay
8,29493077.169867985
1603,1080011.048428823
2,1, 8,21, 0, 8,20.00,30.00,SummerDesignDay
8,29537276.7979373
1603,1080011.048428823
2,1, 8,21, 0, 8,30.00,40.00,SummerDesignDay
8,29587061.28927532
1603,1080011.048428823
2,1, 8,21, 0, 8,40.00,50.00,SummerDesignDay
8,29644435.731031574
1603,1080011.048428823
2,1, 8,21, 0, 8,50.00,60.00,SummerDesignDay
8,29709651.58687209
1603,1080011.048428823
2,1, 8,21, 0, 9, 0.00,10.00,SummerDesignDay
8,29798946.200758066
1603,1080011.048428823
2,1, 8,21, 0, 9,10.00,20.00,SummerDesignDay
8,29885207.523566738
1603,1080011.048428823
2,1, 8,21, 0, 9,20.00,30.00,SummerDesignDay
8,29978324.381245457
1603,1080011.048428823
2,1, 8,21, 0, 9,30.00,40.00,SummerDesignDay
8,30074886.763698198
1603,1080011.048428823
2,1, 8,21, 0, 9,40.00,50.00,SummerDesignDay
8,30182315.960517205
1603,1080011.048428823
2,1, 8,21, 0, 9,50.00,60.00,SummerDesignDay
8,30291380.026688334
1603,1080011.048428823
2,1, 8,21, 0,10, 0.00,10.00,SummerDesignDay
8,30402184.583801065
1603,1080011.048428823
2,1, 8,21, 0,10,10.00,20.00,SummerDesignDay
8,30506852.49803331
1603,1080011.048428823
2,1, 8,21, 0,10,20.00,30.00,SummerDesignDay
8,30614069.69673067
1603,1080011.048428823
2,1, 8,21, 0,10,30.00,40.00,SummerDesignDay
8,30720390.94768939
1603,1080011.048428823
2,1, 8,21, 0,10,40.00,50.00,SummerDesignDay
8,32080772.01225213
1603,1080011.048428823
2,1, 8,21, 0,10,50.00,60.00,SummerDesignDay
8,30931403.631319113
1603,1080011.048428823
2,1, 8,21, 0,11, 0.00,10.00,SummerDesignDay
8,31036652.394405197
1603,1080011.048428823
2,1, 8,21, 0,11,10.00,20.00,SummerDesignDay
8,31133624.581831433
1603,1080011.048428823
2,1, 8,21, 0,11,20.00,30.00,SummerDesignDay
8,31231522.96093695
1603,1080011.048428823
2,1, 8,21, 0,11,30.00,40.00,SummerDesignDay
8,31327115.11567428
1603,1080011.048428823
2,1, 8,21, 0,11,40.00,50.00,SummerDesignDay
8,31421607.39034979
1603,1080011.048428823
2,1, 8,21, 0,11,50.00,60.00,SummerDesignDay
8,31515071.501178864
1603,1080011.048428823
2,1, 8,21, 0,12, 0.00,10.00,SummerDesignDay
8,31585207.093235306
1603,1080011.048428823
2,1, 8,21, 0,12,10.00,20.00,SummerDesignDay
8,31621167.950702794
1603,1080011.048428823
2,1, 8,21, 0,12,20.00,30.00,SummerDesignDay
8,31744121.7432521
1603,1080011.048428823
2,1, 8,21, 0,12,30.00,40.00,SummerDesignDay
8,31776053.406998746
1603,1080011.048428823
2,1, 8,21, 0,12,40.00,50.00,SummerDesignDay
8,31848987.77349985
1603,1080011.048428823
2,1, 8,21, 0,12,50.00,60.00,SummerDesignDay
8,31907583.659017973
1603,1080011.048428823
2,1, 8,21, 0,13, 0.00,10.00,SummerDesignDay
8,31956689.54903402
1603,1080011.048428823
2,1, 8,21, 0,13,10.00,20.00,SummerDesignDay
8,32003783.84737086
1603,1080011.048428823
2,1, 8,21, 0,13,20.00,30.00,SummerDesignDay
8,32049410.86309761
1603,1080011.048428823
2,1, 8,21, 0,13,30.00,40.00,SummerDesignDay
8,32093806.64959677
1603,1080011.048428823
2,1, 8,21, 0,13,40.00,50.00,SummerDesignDay
8,32137501.667862657
1603,1080011.048428823
2,1, 8,21, 0,13,50.00,60.00,SummerDesignDay
8,32180683.169256635
1603,1080011.048428823
2,1, 8,21, 0,14, 0.00,10.00,SummerDesignDay
8,32211605.148542468
1603,1080011.048428823
2,1, 8,21, 0,14,10.00,20.00,SummerDesignDay
8,32243421.431514084
1603,1080011.048428823
2,1, 8,21, 0,14,20.00,30.00,SummerDesignDay
8,32276846.555392608
1603,1080011.048428823
2,1, 8,21, 0,14,30.00,40.00,SummerDesignDay
8,32311336.5536325
1603,1080011.048428823
2,1, 8,21, 0,14,40.00,50.00,SummerDesignDay
8,32346275.71733009
1603,1080011.048428823
2,1, 8,21, 0,14,50.00,60.00,SummerDesignDay
8,32381341.61558363
1603,1080011.048428823
2,1, 8,21, 0,15, 0.00,10.00,SummerDesignDay
8,32393163.47542716
1603,1080011.048428823
2,1, 8,21, 0,15,10.00,20.00,SummerDesignDay
8,32404039.319638737
1603,1080011.048428823
2,1, 8,21, 0,15,20.00,30.00,SummerDesignDay
8,32413608.474426173
1603,1080011.048428823
2,1, 8,21, 0,15,30.00,40.00,SummerDesignDay
8,33676362.38529457
1603,1080011.048428823
2,1, 8,21, 0,15,40.00,50.00,SummerDesignDay
8,32428097.957854044
1603,1080011.048428823
2,1, 8,21, 0,15,50.00,60.00,SummerDesignDay
8,32432809.372034565
1603,1080011.048428823
2,1, 8,21, 0,16, 0.00,10.00,SummerDesignDay
8,32408347.731932193
1603,1080011.048428823
2,1, 8,21, 0,16,10.00,20.00,SummerDesignDay
8,32382043.932421234
1603,1080011.048428823
2,1, 8,21, 0,16,20.00,30.00,SummerDesignDay
8,32353731.737604663
1603,1080011.048428823
2,1, 8,21, 0,16,30.00,40.00,SummerDesignDay
8,32323393.78233342
1603,1080011.048428823
2,1, 8,21, 0,16,40.00,50.00,SummerDesignDay
8,32292339.494302515
1603,1080011.048428823
2,1, 8,21, 0,16,50.00,60.00,SummerDesignDay
8,32258272.045584414
1603,1080011.048428823
2,1, 8,21, 0,17, 0.00,10.00,SummerDesignDay
8,32212958.797323953
1603,1080011.048428823
2,1, 8,21, 0,17,10.00,20.00,SummerDesignDay
8,32165796.207685046
1603,1080011.048428823
2,1, 8,21, 0,17,20.00,30.00,SummerDesignDay
8,32115526.176130384
1603,1080011.048428823
2,1, 8,21, 0,17,30.00,40.00,SummerDesignDay
8,32063446.372955613
1603,1080011.048428823
2,1, 8,21, 0,17,40.00,50.00,SummerDesignDay
8,32008693.382107027
1603,1080011.048428823
2,1, 8,21, 0,17,50.00,60.00,SummerDesignDay
8,31951614.374997918
1603,1080011.048428823
2,1, 8,21, 0,18, 0.00,10.00,SummerDesignDay
8,31883338.827313762
1603,1080011.048428823
2,1, 8,21, 0,18,10.00,20.00,SummerDesignDay
8,31812949.177392103
1603,1080011.048428823
2,1, 8,21, 0,18,20.00,30.00,SummerDesignDay
8,31740429.917092677
1603,1080011.048428823
2,1, 8,21, 0,18,30.00,40.00,SummerDesignDay
8,31666032.488008466
1603,1080011.048428823
2,1, 8,21, 0,18,40.00,50.00,SummerDesignDay
8,31590084.93932712
1603,1080011.048428823
2,1, 8,21, 0,18,50.00,60.00,SummerDesignDay
8,31512951.668736465
1603,1080011.048428823
2,1, 8,21, 0,19, 0.00,10.00,SummerDesignDay
8,31413407.9468611
1603,1080011.048428823
2,1, 8,21, 0,19,10.00,20.00,SummerDesignDay
8,31313521.036334097
1603,1080011.048428823
2,1, 8,21, 0,19,20.00,30.00,SummerDesignDay
8,31182903.777886357
1603,1080011.048428823
2,1, 8,21, 0,19,30.00,40.00,SummerDesignDay
8,31135608.919419464
1603,1080011.048428823
2,1, 8,21, 0,19,40.00,50.00,SummerDesignDay
8,31007150.485359445
1603,1080011.048428823
2,1, 8,21, 0,19,50.00,60.00,SummerDesignDay
8,30922594.618241724
1603,1080011.048428823
2,1, 8,21, 0,20, 0.00,10.00,SummerDesignDay
8,30849633.131275434
1603,1080011.048428823
2,1, 8,21, 0,20,10.00,20.00,SummerDesignDay
8,30780347.97877155
1603,1080011.048428823
2,1, 8,21, 0,20,20.00,30.00,SummerDesignDay
8,30708864.05854557
1603,1080011.048428823
2,1, 8,21, 0,20,30.00,40.00,SummerDesignDay
8,31886850.180035707
1603,1080011.048428823
2,1, 8,21, 0,20,40.00,50.00,SummerDesignDay
8,30550272.32635566
1603,1080011.048428823
2,1, 8,21, 0,20,50.00,60.00,SummerDesignDay
8,30461841.421066996
1603,1080011.048428823
2,1, 8,21, 0,21, 0.00,10.00,SummerDesignDay
8,30349593.26660161
1603,1080011.048428823
2,1, 8,21, 0,21,10.00,20.00,SummerDesignDay
8,30305680.451223582
1603,1080011.048428823
2,1, 8,21, 0,21,20.00,30.00,SummerDesignDay
8,30185523.424454767
1603,1080011.048428823
2,1, 8,21, 0,21,30.00,40.00,SummerDesignDay
8,30641376.68259783
1603,1080011.048428823
2,1, 8,21, 0,21,40.00,50.00,SummerDesignDay
8,30556883.622632142
1603,1080011.048428823
2,1, 8,21, 0,21,50.00,60.00,SummerDesignDay
8,30454452.178281277
1603,41360.59249729682
2,1, 8,21, 0,22, 0.00,10.00,SummerDesignDay
8,30428954.80192542
1603,248164.01813952907
2,1, 8,21, 0,22,10.00,20.00,SummerDesignDay
8,30341152.507639315
1603,1080011.048428823
2,1, 8,21, 0,22,20.00,30.00,SummerDesignDay
8,30290006.8232777
1603,1080011.048428823
2,1, 8,21, 0,22,30.00,40.00,SummerDesignDay
8,30232697.047231194
1603,1080011.048428823
2,1, 8,21, 0,22,40.00,50.00,SummerDesignDay
8,30178700.900940415
1603,1080011.048428823
2,1, 8,21, 0,22,50.00,60.00,SummerDesignDay
8,30126891.43503385
1603,1080011.048428823
2,1, 8,21, 0,23, 0.00,10.00,SummerDesignDay
8,26269226.413301643
1603,1080011.0484288232
2,1, 8,21, 0,23,10.00,20.00,SummerDesignDay
8,26269226.413301643
1603,1080011.048428823
2,1, 8,21, 0,23,20.00,30.00,SummerDesignDay
8,26269226.413301643
1603,772221.5966667995
2,1, 8,21, 0,23,30.00,40.00,SummerDesignDay
8,26269226.413301643
1603,0.0
2,1, 8,21, 0,23,40.00,50.00,SummerDesignDay
8,26869535.628376454
1603,464864.15466941136
2,1, 8,21, 0,23,50.00,60.00,SummerDesignDay
8,27742084.11890807
1603,1080011.048428823
2,1, 8,21, 0,24, 0.00,10.00,SummerDesignDay
8,26990098.807829738
1603,1080011.048428823
2,1, 8,21, 0,24,10.00,20.00,SummerDesignDay
8,27161284.602110267
1603,1080011.048428823
2,1, 8,21, 0,24,20.00,30.00,SummerDesignDay
8,27187914.767451823
1603,1080011.048428823
2,1, 8,21, 0,24,30.00,40.00,SummerDesignDay
8,27194517.528410435
1603,1080011.048428823
2,1, 8,21, 0,24,40.00,50.00,SummerDesignDay
8,27199175.652371958
1603,1080011.048428823
2,1, 8,21, 0,24,50.00,60.00,SummerDesignDay
8,27202361.929696452
1603,1044736.4308588722
1,KODIAK ANN HTG 99.6% CONDNS DB HVAC Sizing Pass 1,  57.75,-152.50,  -9.00,   5.00
2,1, 1,21, 0, 1, 0.00,10.00,WinterDesignDay
8,3773471.329545685
1603,67051866.966335535
2,1, 1,21, 0, 1,10.00,20.00,WinterDesignDay
8,3773471.329545685
1603,67052090.780577295
2,1, 1,21, 0, 1,20.00,30.00,WinterDesignDay
8,3773471.329545685
1603,67052312.99594691
2,1, 1,21, 0, 1,30.00,40.00,WinterDesignDay
8,3773471.329545685
1603,67052533.62394225
2,1, 1,21, 0, 1,40.00,50.00,WinterDesignDay
8,3773471.329545685
1603,67052752.67597687
2,1, 1,21, 0, 1,50.00,60.00,WinterDesignDay
8,3773471.329545685
1603,67052970.163382344
2,1, 1,21, 0, 2, 0.00,10.00,WinterDesignDay
8,3773471.329545685
1603,67053186.09740772
2,1, 1,21, 0, 2,10.00,20.00,WinterDesignDay
8,3773471.329545685
1603,67053400.48922058
2,1, 1,21, 0, 2,20.00,30.00,WinterDesignDay
8,3773471.329545685
1603,67053613.34990808
2,1, 1,21, 0, 2,30.00,40.00,WinterDesignDay
8,3773471.329545685
1603,67981674.0408315
2,1, 1,21, 0, 2,40.00,50.00,WinterDesignDay
8,3773471.329545685
1603,68033526.90677823
2,1, 1,21, 0, 2,50.00,60.00,WinterDesignDay
8,3773471.329545685
1603,67054242.854881585
2,1, 1,21, 0, 3, 0.00,10.00,WinterDesignDay
8,3773471.329545685
1603,67054449.700335324
2,1, 1,21, 0, 3,10.00,20.00,WinterDesignDay
8,3773471.329545685
1603,67054655.06890397
2,1, 1,21, 0, 3,20.00,30.00,WinterDesignDay
8,3773471.329545685
1603,67054858.97120092
2,1, 1,21, 0, 3,30.00,40.00,WinterDesignDay
8,3773471.329545685
1603,67055061.41776227
2,1, 1,21, 0, 3,40.00,50.00,WinterDesignDay
8,3773471.329545685
1603,67055262.41904929
2,1, 1,21, 0, 3,50.00,60.00,WinterDesignDay
8,3773471.329545685
1603,67055461.985445745
2,1, 1,21, 0, 4, 0.00,10.00,WinterDesignDay
8,3773471.329545685
1603,67055660.12726147
2,1, 1,21, 0, 4,10.00,20.00,WinterDesignDay
8,3773471.329545685
1603,67055856.85473084
2,1, 1,21, 0, 4,20.00,30.00,WinterDesignDay
8,3773471.329545685
1603,68084377.02941753
2,1, 1,21, 0, 4,30.00,40.00,WinterDesignDay
8,3773471.329545685
1603,67935272.36555867
2,1, 1,21, 0, 4,40.00,50.00,WinterDesignDay
8,3773471.329545685
1603,67056438.65230162
2,1, 1,21, 0, 4,50.00,60.00,WinterDesignDay
8,3773471.329545685
1603,67056629.82326019
2,1, 1,21, 0, 5, 0.00,10.00,WinterDesignDay
8,3773471.329545685
1603,67056819.62994586
2,1, 1,21, 0, 5,10.00,20.00,WinterDesignDay
8,3773471.329545685
1603,67057008.08215648
2,1, 1,21, 0, 5,20.00,30.00,WinterDesignDay
8,3773471.329545685
1603,67057195.18961975
2,1, 1,21, 0, 5,30.00,40.00,WinterDesignDay
8,3773471.329545685
1603,67057380.96199226
2,1, 1,21, 0, 5,40.00,50.00,WinterDesignDay
8,3773471.329545685
1603,67057565.40886071
2,1, 1,21, 0, 5,50.00,60.00,WinterDesignDay
8,5028187.756211022
1603,67057748.53974333
2,1, 1,21, 0, 6, 0.00,10.00,WinterDesignDay
8,3773471.329545685
1603,67106673.28448177
2,1, 1,21, 0, 6,10.00,20.00,WinterDesignDay
8,3773471.329545685
1603,68138121.93970533
2,1, 1,21, 0, 6,20.00,30.00,WinterDesignDay
8,3773471.329545685
1603,67836875.57222944
2,1, 1,21, 0, 6,30.00,40.00,WinterDesignDay
8,3773471.329545685
1603,67058468.09136436
2,1, 1,21, 0, 6,40.00,50.00,WinterDesignDay
8,3773471.329545685
1603,67058644.78268756
2,1, 1,21, 0, 6,50.00,60.00,WinterDesignDay
8,3773471.329545685
1603,67058820.213701196
2,1, 1,21, 0, 7, 0.00,10.00,WinterDesignDay
8,3959570.413301543
1603,67230751.13886307
2,1, 1,21, 0, 7,10.00,20.00,WinterDesignDay
8,3959570.413301543
1603,68139178.37934719
2,1, 1,21, 0, 7,20.00,30.00,WinterDesignDay
8,3959570.413301543
1603,68139350.0834467
2,1, 1,21, 0, 7,30.00,40.00,WinterDesignDay
8,3959570.413301543
1603,68139520.56302962
2,1, 1,21, 0, 7,40.00,50.00,WinterDesignDay
8,3959570.413301543
1603,68139689.82688299
2,1, 1,21, 0, 7,50.00,60.00,WinterDesignDay
8,3959570.413301543
1603,68139857.8837305
2,1, 1,21, 0, 8, 0.00,10.00,WinterDesignDay
8,3959570.413301543
1603,68140024.74223281
2,1, 1,21, 0, 8,10.00,20.00,WinterDesignDay
8,3959570.413301543
1603,68140190.41098733
2,1, 1,21, 0, 8,20.00,30.00,WinterDesignDay
8,3959570.413301543
1603,68140354.89853014
2,1, 1,21, 0, 8,30.00,40.00,WinterDesignDay
8,3959570.413301543
1603,68140518.21333508
2,1, 1,21, 0, 8,40.00,50.00,WinterDesignDay
8,3959570.413301543
1603,68140680.36381534
2,1, 1,21, 0, 8,50.00,60.00,WinterDesignDay
8,3959570.413301543
1603,68140841.35832259
2,1, 1,21, 0, 9, 0.00,10.00,WinterDesignDay
8,3959570.413301543
1603,68141001.20514862
2,1, 1,21, 0, 9,10.00,20.00,WinterDesignDay
8,3959570.413301543
1603,68141159.9125253
2,1, 1,21, 0, 9,20.00,30.00,WinterDesignDay
8,3959570.413301543
1603,68141317.48862445
2,1, 1,21, 0, 9,30.00,40.00,WinterDesignDay
8,3959570.413301543
1603,68141473.94155978
2,1, 1,21, 0, 9,40.00,50.00,WinterDesignDay
8,3959570.413301543