Program Version,EnergyPlus, Version 22.2.0-aa78da9668, YMD=2023.02.28 18:47
1,5,Environment Title[],Latitude[deg],Longitude[deg],Time Zone[],Elevation[m]
2,8,Day of Simulation[],Month[],Day of Month[],DST Indicator[1=yes 0=no],Hour[],StartMinute[],EndMinute[],DayType
3,5,Cumulative Day of Simulation[],Month[],Day of Month[],DST Indicator[1=yes 0=no],DayType  ! When Daily Report Variables Requested
4,2,Cumulative Days of Simulation[],Month[]  ! When Monthly Report Variables Requested
5,1,Cumulative Days of Simulation[] ! When Run Period Report Variables Requested
6,1,Calendar Year of Simulation[] ! When Annual Report Variables Requested
8,1,Electricity:Facility [J] !TimeStep
1256,1,NaturalGas:Facility [J] !TimeStep
End of Data Dictionary
1,RUN PERIOD 1,  57.75,-152.49,  -9.00,  34.00
2,1, 1, 1, 0, 1, 0.00,10.00,Wednesday
8,2193229.3281741636
1256,0.0
2,1, 1, 1, 0, 1,10.00,20.00,Wednesday
8,2193229.3281741636
1256,0.0
2,1, 1, 1, 0, 1,20.00,30.00,Wednesday
8,2193229.3281741636
1256,0.0
2,1, 1, 1, 0, 1,30.00,40.00,Wednesday
8,2193229.3281741636
1256,0.0
2,1, 1, 1, 0, 1,40.00,50.00,Wednesday
8,2193229.3281741636
1256,0.0
2,1, 1, 1, 0, 1,50.00,60.00,Wednesday
8,2193229.3281741636
1256,0.0
2,1, 1, 1, 0, 2, 0.00,10.00,Wednesday
8,2193229.3281741636
1256,0.0
2,1, 1, 1, 0, 2,10.00,20.00,Wednesday
8,2193229.3281741636
1256,0.0
2,1, 1, 1, 0, 2,20.00,30.00,Wednesday
8,2193229.3281741636
1256,0.0
2,1, 1, 1, 0, 2,30.00,40.00,Wednesday
8,2193229.3281741636
1256,0.0
2,1, 1, 1, 0, 2,40.00,50.00,Wednesday
8,2193229.3281741636
1256,0.0
2,1, 1, 1, 0, 2,50.00,60.00,Wednesday
8,2193229.3281741636
1256,0.0
2,1, 1, 1, 0, 3, 0.00,10.00,Wednesday
8,2193229.3281741636
1256,0.0
2,1, 1, 1, 0, 3,10.00,20.00,Wednesday
8,2193229.3281741636
1256,0.0
2,1, 1, 1, 0, 3,20.00,30.00,Wednesday
8,2193229.3281741636
1256,0.0
2,1, 1, 1, 0, 3,30.00,40.00,Wednesday
8,2193229.3281741636
1256,0.0
2,1, 1, 1, 0, 3,40.00,50.00,Wednesday
8,2193229.3281741636
1256,0.0
2,1, 1, 1, 0, 3,50.00,60.00,Wednesday
8,2193229.3281741636
1256,0.0
2,1, 1, 1, 0, 4, 0.00,10.00,Wednesday
8,2193229.3281741636
1256,0.0
2,1, 1, 1, 0, 4,10.00,20.00,Wednesday
8,2193229.3281741636
1256,0.0
2,1, 1, 1, 0, 4,20.00,30.00,Wednesday
8,2193229.3281741636
1256,0.0
2,1, 1, 1, 0, 4,30.00,40.00,Wednesday
8,2193229.3281741636
1256,0.0
2,1, 1, 1, 0, 4,40.00,50.00,Wednesday
8,2193229.3281741636
1256,0.0
2,1, 1, 1, 0, 4,50.00,60.00,Wednesday
8,2193229.3281741636
1256,0.0
2,1, 1, 1, 0, 5, 0.00,10.00,Wednesday
8,2193229.3281741636
1256,0.0
2,1, 1, 1, 0, 5,10.00,20.00,Wednesday
8,2193229.3281741636
1256,0.0
2,1, 1, 1, 0, 5,20.00,30.00,Wednesday
8,2193229.3281741636
1256,0.0
2,1, 1, 1, 0, 5,30.00,40.00,Wednesday
8,2193229.3281741636
1256,0.0
2,1, 1, 1, 0, 5,40.00,50.00,Wednesday
8,2193229.3281741636
1256,0.0
2,1, 1, 1, 0, 5,50.00,60.00,Wednesday
8,2193229.3281741636
1256,0.0
2,1, 1, 1, 0, 6, 0.00,10.00,Wednesday
8,2328579.818750145
1256,0.0
2,1, 1, 1, 0, 6,10.00,20.00,Wednesday
8,2328579.818750145
1256,0.0
2,1, 1, 1, 0, 6,20.00,30.00,Wednesday
8,2328579.818750145
1256,0.0
2,1, 1, 1, 0, 6,30.00,40.00,Wednesday
8,2328579.818750145
1256,0.0
2,1, 1, 1, 0, 6,40.00,50.00,Wednesday
8,2328579.818750145
1256,0.0
2,1, 1, 1, 0, 6,50.00,60.00,Wednesday
8,2328579.818750145
1256,0.0
2,1, 1, 1, 0, 7, 0.00,10.00,Wednesday
8,3696359.146706102
1256,5543321.174748531
2,1, 1, 1, 0, 7,10.00,20.00,Wednesday
8,3696359.1467061024
1256,572158.581092075
2,1, 1, 1, 0, 7,20.00,30.00,Wednesday
8,3696359.1467061024
1256,4259892.014888528
2,1, 1, 1, 0, 7,30.00,40.00,Wednesday
8,3696359.1467061024
1256,2978238.0150192715
2,1, 1, 1, 0, 7,40.00,50.00,Wednesday
8,3696359.1467061024
1256,2469267.006320481
2,1, 1, 1, 0, 7,50.00,60.00,Wednesday
8,3696359.1467061024
1256,2072165.9691573814
2,1, 1, 1, 0, 8, 0.00,10.00,Wednesday
8,5377114.033815028
1256,7947152.452896262
2,1, 1, 1, 0, 8,10.00,20.00,Wednesday
8,4095841.477121862
1256,7872436.871780612
2,1, 1, 1, 0, 8,20.00,30.00,Wednesday
8,4095841.477121862
1256,7831794.447294651
2,1, 1, 1, 0, 8,30.00,40.00,Wednesday
8,4095841.477121862
1256,7813895.674837526
2,1, 1, 1, 0, 8,40.00,50.00,Wednesday
8,4095841.477121862
1256,7809954.9241382945
2,1, 1, 1, 0, 8,50.00,60.00,Wednesday
8,4095841.477121862
1256,7819266.558521522
2,1, 1, 1, 0, 9, 0.00,10.00,Wednesday
8,7416540.231706217
1256,4587653.994367506
2,1, 1, 1, 0, 9,10.00,20.00,Wednesday
8,6102837.927978022
1256,4503367.515187143
2,1, 1, 1, 0, 9,20.00,30.00,Wednesday
8,6102837.927978022
1256,4443884.138480796
2,1, 1, 1, 0, 9,30.00,40.00,Wednesday
8,6102837.927978022
1256,4394320.994666294
2,1, 1, 1, 0, 9,40.00,50.00,Wednesday
8,7416584.356439877
1256,4352442.728729148
2,1, 1, 1, 0, 9,50.00,60.00,Wednesday
8,6102837.927978022
1256,4316977.167842468
2,1, 1, 1, 0,10, 0.00,10.00,Wednesday
8,6102837.927978139
1256,4258448.751673786
2,1, 1, 1, 0,10,10.00,20.00,Wednesday
8,7427105.139014346
1256,4204895.0578215
2,1, 1, 1, 0,10,20.00,30.00,Wednesday
8,6102837.927978139
1256,4155103.398731578
2,1, 1, 1, 0,10,30.00,40.00,Wednesday
8,6102837.927978139
1256,4108395.4155410132
2,1, 1, 1, 0,10,40.00,50.00,Wednesday
8,6227903.563348638
1256,4064297.943664302
2,1, 1, 1, 0,10,50.00,60.00,Wednesday
8,7302181.024966877
1256,4022325.4208875084
2,1, 1, 1, 0,11, 0.00,10.00,Wednesday
8,5555637.927978139
1256,3961317.136140397
2,1, 1, 1, 0,11,10.00,20.00,Wednesday
8,5555637.927978139
1256,3915954.6430519517
2,1, 1, 1, 0,11,20.00,30.00,Wednesday
8,6880099.744532838
1256,3872560.7804964664
2,1, 1, 1, 0,11,30.00,40.00,Wednesday
8,5505934.906960035
1256,3780678.3892955957
2,1, 1, 1, 0,11,40.00,50.00,Wednesday
8,5475415.817668458
1256,3684833.1987059563
2,1, 1, 1, 0,11,50.00,60.00,Wednesday
8,6749920.804906366
1256,3589247.6144018127
2,1, 1, 1, 0,12, 0.00,10.00,Wednesday
8,5368450.001220884
1256,3671372.842027753
2,1, 1, 1, 0,12,10.00,20.00,Wednesday
8,5368450.001220884
1256,3278620.295174604
2,1, 1, 1, 0,12,20.00,30.00,Wednesday
8,6695638.90368457
1256,3268773.980542412
2,1, 1, 1, 0,12,30.00,40.00,Wednesday
8,5341286.307615366
1256,3162831.1057167603
2,1, 1, 1, 0,12,40.00,50.00,Wednesday
8,6668204.0338487215
1256,3080181.0768028554
2,1, 1, 1, 0,12,50.00,60.00,Wednesday
8,5322102.375888838
1256,2997042.968430675
2,1, 1, 1, 0,13, 0.00,10.00,Wednesday
8,5018063.560623985
1256,5124678.201955558
2,1, 1, 1, 0,13,10.00,20.00,Wednesday
8,6353198.973508538
1256,5035334.966978923
2,1, 1, 1, 0,13,20.00,30.00,Wednesday
8,4984215.681776649
1256,4938610.063416331
2,1, 1, 1, 0,13,30.00,40.00,Wednesday
8,6353101.919984408
1256,4858423.939705386
2,1, 1, 1, 0,13,40.00,50.00,Wednesday
8,4984215.681776649
1256,4783340.181467317
2,1, 1, 1, 0,13,50.00,60.00,Wednesday
8,6352898.758944174
1256,4711250.61086214
2,1, 1, 1, 0,14, 0.00,10.00,Wednesday
8,5284023.512185877
1256,2580598.9430637397
2,1, 1, 1, 0,14,10.00,20.00,Wednesday
8,6641262.351242142
1256,2278331.5884614335
2,1, 1, 1, 0,14,20.00,30.00,Wednesday
8,5284023.512185877
1256,2306023.8556402465
2,1, 1, 1, 0,14,30.00,40.00,Wednesday
8,5284023.512185877
1256,2240741.709433193
2,1, 1, 1, 0,14,40.00,50.00,Wednesday
8,6641565.453673506
1256,2192632.2148015397
2,1, 1, 1, 0,14,50.00,60.00,Wednesday
8,5284023.512185877
1256,2146743.5040494027
2,1, 1, 1, 0,15, 0.00,10.00,Wednesday
8,6597312.100223958
1256,2138217.7318963013
2,1, 1, 1, 0,15,10.00,20.00,Wednesday
8,5284313.328023228
1256,2132566.6299377717
2,1, 1, 1, 0,15,20.00,30.00,Wednesday
8,5284023.512185162
1256,2129183.729806479
2,1, 1, 1, 0,15,30.00,40.00,Wednesday
8,5292003.274064152
1256,2146529.0890075774
2,1, 1, 1, 0,15,40.00,50.00,Wednesday
8,6635775.082564772
1256,2165544.939228489
2,1, 1, 1, 0,15,50.00,60.00,Wednesday
8,5341286.30761494
1256,2190893.6690440075
2,1, 1, 1, 0,16, 0.00,10.00,Wednesday
8,5349266.069493931
1256,2208968.8619586406
2,1, 1, 1, 0,16,10.00,20.00,Wednesday
8,5349266.069493931
1256,2234305.8379988302
2,1, 1, 1, 0,16,20.00,30.00,Wednesday
8,6663035.140280267
1256,2277846.2529377826
2,1, 1, 1, 0,16,30.00,40.00,Wednesday
8,5376429.763099448
1256,2355872.539334032
2,1, 1, 1, 0,16,40.00,50.00,Wednesday
8,5376429.763099448
1256,2432653.87748977
2,1, 1, 1, 0,16,50.00,60.00,Wednesday
8,6586568.876445309
1256,2494885.1390951457
2,1, 1, 1, 0,17, 0.00,10.00,Wednesday
8,5711613.046689359
1256,2549183.8306104327
2,1, 1, 1, 0,17,10.00,20.00,Wednesday
8,5555637.927978265
1256,2614811.053287904
2,1, 1, 1, 0,17,20.00,30.00,Wednesday
8,7437906.989657417
1256,2719818.513250507
2,1, 1, 1, 0,17,30.00,40.00,Wednesday
8,6102837.927978265
1256,2755942.532088589
2,1, 1, 1, 0,17,40.00,50.00,Wednesday
8,6102837.927978265
1256,2781238.137655326
2,1, 1, 1, 0,17,50.00,60.00,Wednesday
8,7437961.170052829
1256,2801539.500253871
2,1, 1, 1, 0,18, 0.00,10.00,Wednesday
8,4495323.807535485
1256,5911904.717365352
2,1, 1, 1, 0,18,10.00,20.00,Wednesday
8,4495323.807535485
1256,5959197.675851393
2,1, 1, 1, 0,18,20.00,30.00,Wednesday
8,4495323.807535485
1256,5994222.803625095
2,1, 1, 1, 0,18,30.00,40.00,Wednesday
8,4495323.807535485
1256,6024037.12934996
2,1, 1, 1, 0,18,40.00,50.00,Wednesday
8,5788263.420000043
1256,6049849.72658485
2,1, 1, 1, 0,18,50.00,60.00,Wednesday
8,4495323.807535485
1256,6072169.288147274
2,1, 1, 1, 0,19, 0.00,10.00,Wednesday
8,3497174.717972255
1256,4576160.467230608
2,1, 1, 1, 0,19,10.00,20.00,Wednesday
8,3497174.717972255
1256,4614289.287736875
2,1, 1, 1, 0,19,20.00,30.00,Wednesday
8,3497174.717972255
1256,4642282.182448631
2,1, 1, 1, 0,19,30.00,40.00,Wednesday
8,4790134.158329923
1256,4666458.823543987
2,1, 1, 1, 0,19,40.00,50.00,Wednesday
8,3497174.717972255
1256,4687282.056411087
2,1, 1, 1, 0,19,50.00,60.00,Wednesday
8,3497174.717972255
1256,4705223.626046273
2,1, 1, 1, 0,20, 0.00,10.00,Wednesday
8,2321977.4136761306
1256,0.0
2,1, 1, 1, 0,20,10.00,20.00,Wednesday
8,2321977.4136761306
1256,0.0
2,1, 1, 1, 0,20,20.00,30.00,Wednesday
8,2321977.4136761306
1256,0.0
2,1, 1, 1, 0,20,30.00,40.00,Wednesday
8,2321977.4136761306
1256,0.0
2,1, 1, 1, 0,20,40.00,50.00,Wednesday
8,2321977.4136761306
1256,0.0
2,1, 1, 1, 0,20,50.00,60.00,Wednesday
8,3593489.7117585666
1256,0.0
2,1, 1, 1, 0,21, 0.00,10.00,Wednesday
8,2111723.55556453
1256,0.0
2,1, 1, 1, 0,21,10.00,20.00,Wednesday
8,2111723.55556453
1256,0.0
2,1, 1, 1, 0,21,20.00,30.00,Wednesday
8,2111723.55556453
1256,0.0
2,1, 1, 1, 0,21,30.00,40.00,Wednesday
8,2111723.55556453
1256,0.0
2,1, 1, 1, 0,21,40.00,50.00,Wednesday
8,2111723.55556453
1256,0.0
2,1, 1, 1, 0,21,50.00,60.00,Wednesday
8,2111723.55556453
1256,0.0
2,1, 1, 1, 0,22, 0.00,10.00,Wednesday
8,3373355.0343597285
1256,0.0
2,1, 1, 1, 0,22,10.00,20.00,Wednesday
8,2111723.555563087
1256,0.0
2,1, 1, 1, 0,22,20.00,30.00,Wednesday
8,2111723.555563087
1256,0.0
2,1, 1, 1, 0,22,30.00,40.00,Wednesday
8,2111723.555563087
1256,0.0
2,1, 1, 1, 0,22,40.00,50.00,Wednesday
8,2111723.555563087
1256,0.0
2,1, 1, 1, 0,22,50.00,60.00,Wednesday
8,2111723.555563087
1256,0.0
2,1, 1, 1, 0,23, 0.00,10.00,Wednesday
8,1922495.0832609714
1256,0.0
2,1, 1, 1, 0,23,10.00,20.00,Wednesday
8,1922495.0832609714
1256,0.0
2,1, 1, 1, 0,23,20.00,30.00,Wednesday
8,1922495.0832609714
1256,0.0
2,1, 1, 1, 0,23,30.00,40.00,Wednesday
8,1922495.0832609714
1256,0.0
2,1, 1, 1, 0,23,40.00,50.00,Wednesday
8,1922495.0832609714
1256,0.0
2,1, 1, 1, 0,23,50.00,60.00,Wednesday
8,1922495.0832609714
1256,0.0
2,1, 1, 1, 0,24, 0.00,10.00,Wednesday
8,1867710.4117676455
1256,0.0
2,1, 1, 1, 0,24,10.00,20.00,Wednesday
8,1867710.4117676455
1256,0.0
2,1, 1, 1, 0,24,20.00,30.00,Wednesday
8,1867710.4117676455
1256,0.0
2,1, 1, 1, 0,24,30.00,40.00,Wednesday
8,1867710.4117676455
1256,0.0
2,1, 1, 1, 0,24,40.00,50.00,Wednesday
8,1867710.4117676455
1256,0.0
2,1, 1, 1, 0,24,50.00,60.00,Wednesday
8,1867710.4117676455
1256,0.0
2,2, 1, 2, 0, 1, 0.00,10.00,Thursday
8,2193229.3281741636
1256,0.0
2,2, 1, 2, 0, 1,10.00,20.00,Thursday
8,2193229.3281741636
1256,0.0
2,2, 1, 2, 0, 1,20.00,30.00,Thursday
8,2193229.3281741636
1256,0.0
2,2, 1, 2, 0, 1,30.00,40.00,Thursday
8,2193229.3281741636
1256,0.0
2,2, 1, 2, 0, 1,40.00,50.00,Thursday
8,2193229.3281741636
1256,0.0
2,2, 1, 2, 0, 1,50.00,60.00,Thursday
8,2193229.3281741636
1256,0.0
2,2, 1, 2, 0, 2, 0.00,10.00,Thursday
8,2193229.3281741636
1256,0.0
2,2, 1, 2, 0, 2,10.00,20.00,Thursday
8,2193229.3281741636
1256,0.0
2,2, 1, 2, 0, 2,20.00,30.00,Thursday
8,2193229.3281741636
1256,0.0
2,2, 1, 2, 0, 2,30.00,40.00,Thursday
8,2193229.3281741636
1256,0.0
2,2, 1, 2, 0, 2,40.00,50.00,Thursday
8,2193229.3281741636
1256,0.0
2,2, 1, 2, 0, 2,50.00,60.00,Thursday
8,2193229.3281741636
1256,0.0
2,2, 1, 2, 0, 3, 0.00,10.00,Thursday
8,2193229.3281741636
1256,0.0
2,2, 1, 2, 0, 3,10.00,20.00,Thursday
8,2193229.3281741636
1256,0.0
2,2, 1, 2, 0, 3,20.00,30.00,Thursday
8,2193229.3281741636
1256,0.0
2,2, 1, 2, 0, 3,30.00,40.00,Thursday
8,2193229.3281741636
1256,0.0
2,2, 1, 2, 0, 3,40.00,50.00,Thursday
8,2193229.3281741636
1256,0.0
2,2, 1, 2, 0, 3,50.00,60.00,Thursday
8,2193229.3281741636
1256,0.0
2,2, 1, 2, 0, 4, 0.00,10.00,Thursday
8,3445171.291278878
1256,0.0
2,2, 1, 2, 0, 4,10.00,20.00,Thursday
8,2193229.3281741636
1256,0.0
2,2, 1, 2, 0, 4,20.00,30.00,Thursday
8,2193229.3281741636
1256,0.0
2,2, 1, 2, 0, 4,30.00,40.00,Thursday
8,2193229.3281741636
1256,0.0
2,2, 1, 2, 0, 4,40.00,50.00,Thursday
8,2193229.3281741636
1256,0.0
2,2, 1, 2, 0, 4,50.00,60.00,Thursday
8,2193229.3281741636
1256,0.0
2,2, 1, 2, 0, 5, 0.00,10.00,Thursday
8,2193229.3281741636
1256,0.0
2,2, 1, 2, 0, 5,10.00,20.00,Thursday
8,2193229.3281741636
1256,0.0
2,2, 1, 2, 0, 5,20.00,30.00,Thursday
8,2193229.3281741636
1256,0.0
2,2, 1, 2, 0, 5,30.00,40.00,Thursday
8,2193229.3281741636
1256,0.0
2,2, 1, 2, 0, 5,40.00,50.00,Thursday
8,2193229.3281741636
1256,0.0
2,2, 1, 2, 0, 5,50.00,60.00,Thursday
8,2193229.3281741636
1256,0.0
2,2, 1, 2, 0, 6, 0.00,10.00,Thursday
8,2328579.818750145
1256,0.0
2,2, 1, 2, 0, 6,10.00,20.00,Thursday
8,2328579.818750145
1256,0.0
2,2, 1, 2, 0, 6,20.00,30.00,Thursday
8,2328579.818750145
1256,0.0
2,2, 1, 2, 0, 6,30.00,40.00,Thursday
8,2328579.818750145
1256,0.0
2,2, 1, 2, 0, 6,40.00,50.00,Thursday
8,2328579.818750145
1256,0.0
2,2, 1, 2, 0, 6,50.00,60.00,Thursday
8,2328579.818750145
1256,0.0
2,2, 1, 2, 0, 7, 0.00,10.00,Thursday
8,3696359.1467061024
1256,4604352.8880352145
2,2, 1, 2, 0, 7,10.00,20.00,Thursday
8,3696359.1467061024
1256,271883.93044514675
2,2, 1, 2, 0, 7,20.00,30.00,Thursday
8,3696359.1467061024
1256,3258040.1352285966
2,2, 1, 2, 0, 7,30.00,40.00,Thursday
8,3696359.1467061024
1256,2575018.965602873
2,2, 1, 2, 0, 7,40.00,50.00,Thursday
8,3696359.1467061024
1256,2392751.9989869236
2,2, 1, 2, 0, 7,50.00,60.00,Thursday
8,3696359.1467061024
1256,2349184.5995889553
2,2, 1, 2, 0, 8, 0.00,10.00,Thursday
8,4095841.477121862
1256,9128458.109691106
2,2, 1, 2, 0, 8,10.00,20.00,Thursday
8,4095841.477121862
1256,9061408.566878265
2,2, 1, 2, 0, 8,20.00,30.00,Thursday
8,4095841.477121862
1256,9021607.504370486
2,2, 1, 2, 0, 8,30.00,40.00,Thursday
8,5377561.962825874
1256,8998118.036264474
2,2, 1, 2, 0, 8,40.00,50.00,Thursday
8,4095841.477121862
1256,8982319.38610914
2,2, 1, 2, 0, 8,50.00,60.00,Thursday
8,4095841.477121862
1256,8976487.335563969
2,2, 1, 2, 0, 9, 0.00,10.00,Thursday
8,6102837.927978022
1256,5345449.034575771
2,2, 1, 2, 0, 9,10.00,20.00,Thursday
8,6102837.927978022
1256,5270542.501668598
2,2, 1, 2, 0, 9,20.00,30.00,Thursday
8,7416738.950711785
1256,5216583.580754807
2,2, 1, 2, 0, 9,30.00,40.00,Thursday
8,6102837.927978022
1256,5171349.445046573
2,2, 1, 2, 0, 9,40.00,50.00,Thursday
8,6102837.927978022
1256,5132092.528122738
2,2, 1, 2, 0, 9,50.00,60.00,Thursday
8,7416522.260164749
1256,5097874.554963303
2,2, 1, 2, 0,10, 0.00,10.00,Thursday
8,6102837.927978139
1256,5057298.256290616
2,2, 1, 2, 0,10,10.00,20.00,Thursday
8,6102837.927978139
1256,5020680.713436511
2,2, 1, 2, 0,10,20.00,30.00,Thursday
8,6320173.023835708
1256,4987007.035452614
2,2, 1, 2, 0,10,30.00,40.00,Thursday
8,7209890.911278699
1256,4955746.033449699
2,2, 1, 2, 0,10,40.00,50.00,Thursday
8,6102837.927978139
1256,4926484.184282746
2,2, 1, 2, 0,10,50.00,60.00,Thursday
8,6102837.927978139
1256,4898886.933610264
2,2, 1, 2, 0,11, 0.00,10.00,Thursday
8,6880164.837510414
1256,4811716.040809214
2,2, 1, 2, 0,11,10.00,20.00,Thursday
8,5555637.927978139
1256,4745531.695008866
2,2, 1, 2, 0,11,20.00,30.00,Thursday
8,5525118.838686562
1256,4687772.76374455
2,2, 1, 2, 0,11,30.00,40.00,Thursday
8,6830383.473814046
1256,4574040.471239038
2,2, 1, 2, 0,11,40.00,50.00,Thursday
8,5475415.817668458
1256,4465692.448763671
2,2, 1, 2, 0,11,50.00,60.00,Thursday
8,5406528.864923827
1256,4358837.337068027
2,2, 1, 2, 0,12, 0.00,10.00,Thursday
8,6722684.581360947
1256,4245968.148849307
2,2, 1, 2, 0,12,10.00,20.00,Thursday
8,5368450.001220884
1256,4134432.028124393
2,2, 1, 2, 0,12,20.00,30.00,Thursday
8,5368450.001220884
1256,3925106.504940183
2,2, 1, 2, 0,12,30.00,40.00,Thursday
8,6714880.115347894
1256,4170179.2560838205
2,2, 1, 2, 0,12,40.00,50.00,Thursday
8,5349266.069494356
1256,3865788.565181611
2,2, 1, 2, 0,12,50.00,60.00,Thursday
8,6676241.126090951
1256,4159140.7349025495
2,2, 1, 2, 0,13, 0.00,10.00,Thursday
8,5025156.682294198
1256,6028061.308164486
2,2, 1, 2, 0,13,10.00,20.00,Thursday
8,5858208.451248374
1256,6102124.082243751
2,2, 1, 2, 0,13,20.00,30.00,Thursday
8,5560619.934212836
1256,5950500.966139051
2,2, 1, 2, 0,13,30.00,40.00,Thursday
8,5025156.682294198
1256,5993318.429060834
2,2, 1, 2, 0,13,40.00,50.00,Thursday
8,6394188.333233858
1256,5577582.619737563
2,2, 1, 2, 0,13,50.00,60.00,Thursday
8,5025156.682294198
1256,5539885.828021839
2,2, 1, 2, 0,14, 0.00,10.00,Thursday
8,6668427.6053303955
1256,3109234.412324275
2,2, 1, 2, 0,14,10.00,20.00,Thursday
8,5280799.10421733
1256,3193403.0368355243
2,2, 1, 2, 0,14,20.00,30.00,Thursday
8,6630149.838548601
1256,2858956.196175616
2,2, 1, 2, 0,14,30.00,40.00,Thursday
8,5330082.137768119
1256,2870167.1551664616
2,2, 1, 2, 0,14,40.00,50.00,Thursday
8,5330082.137768119
1256,2800238.1713885684
2,2, 1, 2, 0,14,50.00,60.00,Thursday
8,6687712.854233646
1256,2743614.148062504
2,2, 1, 2, 0,15, 0.00,10.00,Thursday
8,5330082.137767403
1256,2681739.1282411213
2,2, 1, 2, 0,15,10.00,20.00,Thursday
8,5330082.137767403
1256,2653257.52012296
2,2, 1, 2, 0,15,20.00,30.00,Thursday
8,6651836.664814737
1256,2604172.684491556
2,2, 1, 2, 0,15,30.00,40.00,Thursday
8,6597094.029301516
1256,0.0
2,2, 1, 2, 0,15,40.00,50.00,Thursday
8,6554214.9736229
1256,0.0
2,2, 1, 2, 0,15,50.00,60.00,Thursday
8,7321901.79925487
1256,0.0
2,2, 1, 2, 0,16, 0.00,10.00,Thursday
8,7070370.872666217
1256,0.0
2,2, 1, 2, 0,16,10.00,20.00,Thursday
8,6500819.0100584095
1256,0.0
2,2, 1, 2, 0,16,20.00,30.00,Thursday
8,6484409.207160685
1256,0.0
2,2, 1, 2, 0,16,30.00,40.00,Thursday
8,7819954.704591122
1256,0.0
2,2, 1, 2, 0,16,40.00,50.00,Thursday
8,6547488.808799688
1256,0.0
2,2, 1, 2, 0,16,50.00,60.00,Thursday
8,6589946.53062517
1256,0.0
2,2, 1, 2, 0,17, 0.00,10.00,Thursday
8,6942003.624049281
1256,0.0
2,2, 1, 2, 0,17,10.00,20.00,Thursday
8,7676438.10806009
1256,0.0
2,2, 1, 2, 0,17,20.00,30.00,Thursday
8,7241254.122418327
1256,0.0
2,2, 1, 2, 0,17,30.00,40.00,Thursday
8,8475756.496716017
1256,0.0
2,2, 1, 2, 0,17,40.00,50.00,Thursday
8,7371233.728869847
1256,0.0
2,2, 1, 2, 0,17,50.00,60.00,Thursday
8,7267009.494597599
1256,0.0
2,2, 1, 2, 0,18, 0.00,10.00,Thursday
8,6979177.088980129
1256,0.0
2,2, 1, 2, 0,18,10.00,20.00,Thursday
8,8305319.596595166
1256,0.0
2,2, 1, 2, 0,18,20.00,30.00,Thursday
8,7040524.908248326
1256,0.0
2,2, 1, 2, 0,18,30.00,40.00,Thursday
8,7067829.28844785
1256,0.0
2,2, 1, 2, 0,18,40.00,50.00,Thursday
8,7094234.385936798
1256,0.0
2,2, 1, 2, 0,18,50.00,60.00,Thursday
8,7119914.968463728
1256,0.0
2,2, 1, 2, 0,19, 0.00,10.00,Thursday
8,6802074.029086298
1256,0.0
2,2, 1, 2, 0,19,10.00,20.00,Thursday
8,5507651.478799636
1256,0.0
2,2, 1, 2, 0,19,20.00,30.00,Thursday
8,5502142.249454923
1256,0.0
2,2, 1, 2, 0,19,30.00,40.00,Thursday
8,5495425.443778788
1256,0.0
2,2, 1, 2, 0,19,40.00,50.00,Thursday
8,5487603.686425832
1256,0.0
2,2, 1, 2, 0,19,50.00,60.00,Thursday
8,6771934.09296023
1256,0.0
2,2, 1, 2, 0,20, 0.00,10.00,Thursday
8,2321977.4136761306
1256,0.0
2,2, 1, 2, 0,20,10.00,20.00,Thursday
8,2321977.4136761306
1256,0.0
2,2, 1, 2, 0,20,20.00,30.00,Thursday
8,2321977.4136761306
1256,0.0
2,2, 1, 2, 0,20,30.00,40.00,Thursday
8,2321977.4136761306
1256,0.0
2,2, 1, 2, 0,20,40.00,50.00,Thursday
8,2321977.4136761306
1256,0.0
2,2, 1, 2, 0,20,50.00,60.00,Thursday
8,2321977.4136761306
1256,0.0
2,2, 1, 2, 0,21, 0.00,10.00,Thursday
8,2111723.55556453
1256,0.0
2,2, 1, 2, 0,21,10.00,20.00,Thursday
8,2111723.55556453
1256,0.0
2,2, 1, 2, 0,21,20.00,30.00,Thursday
8,3393241.5815546503
1256,0.0
2,2, 1, 2, 0,21,30.00,40.00,Thursday
8,2111723.55556453
1256,0.0
2,2, 1, 2, 0,21,40.00,50.00,Thursday
8,2111723.55556453
1256,0.0
2,2, 1, 2, 0,21,50.00,60.00,Thursday
8,2111723.55556453
1256,0.0
2,2, 1, 2, 0,22, 0.00,10.00,Thursday
8,2111723.555563087
1256,0.0
2,2, 1, 2, 0,22,10.00,20.00,Thursday
8,2111723.555563087
1256,0.0
2,2, 1, 2, 0,22,20.00,30.00,Thursday
8,2111723.555563087
1256,0.0
2,2, 1, 2, 0,22,30.00,40.00,Thursday
8,2111723.555563087
1256,0.0
2,2, 1, 2, 0,22,40.00,50.00,Thursday
8,2111723.555563087
1256,0.0
2,2, 1, 2, 0,22,50.00,60.00,Thursday
8,2111723.555563087
1256,0.0
2,2, 1, 2, 0,23, 0.00,10.00,Thursday
8,1922495.0832609714
1256,0.0
2,2, 1, 2, 0,23,10.00,20.00,Thursday
8,3174453.823480351
1256,0.0
2,2, 1, 2, 0,23,20.00,30.00,Thursday
8,1922495.0832609714
1256,0.0
2,2, 1, 2, 0,23,30.00,40.00,Thursday
8,1922495.0832609714
1256,0.0
2,2, 1, 2, 0,23,40.00,50.00,Thursday
8,1922495.0832609714
1256,0.0
2,2, 1, 2, 0,23,50.00,60.00,Thursday
8,1922495.0832609714
1256,0.0
2,2, 1, 2, 0,24, 0.00,10.00,Thursday
8,1867710.4117676455
1256,0.0
2,2, 1, 2, 0,24,10.00,20.00,Thursday
8,1867710.4117676455
1256,0.0
2,2, 1, 2, 0,24,20.00,30.00,Thursday
8,1867710.4117676455
1256,0.0
2,2, 1, 2, 0,24,30.00,40.00,Thursday
8,1867710.4117676455
1256,0.0
2,2, 1, 2, 0,24,40.00,50.00,Thursday
8,1867710.4117676455
1256,0.0
2,2, 1, 2, 0,24,50.00,60.00,Thursday
8,1867710.4117676455
1256,0.0
2,3, 1, 3, 0, 1, 0.00,10.00,Friday
8,2193229.3281741636
1256,0.0
2,3, 1, 3, 0, 1,10.00,20.00,Friday
8,2193229.3281741636
1256,0.0
2,3, 1, 3, 0, 1,20.00,30.00,Friday
8,2193229.3281741636
1256,0.0
2,3, 1, 3, 0, 1,30.00,40.00,Friday
8,2193229.3281741636
1256,0.0
2,3, 1, 3, 0, 1,40.00,50.00,Friday
8,2193229.3281741636
1256,0.0
2,3, 1, 3, 0, 1,50.00,60.00,Friday
8,2193229.3281741636
1256,0.0
2,3, 1, 3, 0, 2, 0.00,10.00,Friday
8,2193229.3281741636
1256,0.0
2,3, 1, 3, 0, 2,10.00,20.00,Friday
8,2193229.3281741636
1256,0.0
2,3, 1, 3, 0, 2,20.00,30.00,Friday
8,2193229.3281741636
1256,0.0
2,3, 1, 3, 0, 2,30.00,40.00,Friday
8,2193229.3281741636
1256,0.0
2,3, 1, 3, 0, 2,40.00,50.00,Friday
8,2193229.3281741636
1256,0.0
2,3, 1, 3, 0, 2,50.00,60.00,Friday
8,2193229.3281741636
1256,0.0
2,3, 1, 3, 0, 3, 0.00,10.00,Friday
8,2193229.3281741636
1256,0.0
2,3, 1, 3, 0, 3,10.00,20.00,Friday
8,2193229.3281741636
1256,0.0
2,3, 1, 3, 0, 3,20.00,30.00,Friday
8,2193229.3281741636
1256,0.0
2,3, 1, 3, 0, 3,30.00,40.00,Friday
8,2193229.3281741636
1256,0.0
2,3, 1, 3, 0, 3,40.00,50.00,Friday
8,2193229.3281741636
1256,0.0
2,3, 1, 3, 0, 3,50.00,60.00,Friday
8,2193229.3281741636
1256,0.0
2,3, 1, 3, 0, 4, 0.00,10.00,Friday
8,2193229.3281741636
1256,0.0
2,3, 1, 3, 0, 4,10.00,20.00,Friday
8,2193229.3281741636
1256,0.0
2,3, 1, 3, 0, 4,20.00,30.00,Friday
8,2193229.3281741636
1256,0.0
2,3, 1, 3, 0, 4,30.00,40.00,Friday
8,2193229.3281741636
1256,0.0
2,3, 1, 3, 0, 4,40.00,50.00,Friday
8,2193229.3281741636
1256,0.0
2,3, 1, 3, 0, 4,50.00,60.00,Friday
8,2193229.3281741636
1256,0.0
2,3, 1, 3, 0, 5, 0.00,10.00,Friday
8,2193229.3281741636
1256,0.0
2,3, 1, 3, 0, 5,10.00,20.00,Friday
8,2193229.3281741636
1256,0.0
2,3, 1, 3, 0, 5,20.00,30.00,Friday
8,2193229.3281741636
1256,0.0
2,3, 1, 3, 0, 5,30.00,40.00,Friday
8,2193229.3281741636
1256,0.0
2,3, 1, 3, 0, 5,40.00,50.00,Friday
8,2193229.3281741636
1256,0.0
2,3, 1, 3, 0, 5,50.00,60.00,Friday
8,2193229.3281741636
1256,0.0
2,3, 1, 3, 0, 6, 0.00,10.00,Friday
8,2328579.818750145
1256,0.0
2,3, 1, 3, 0, 6,10.00,20.00,Friday
8,2328579.818750145
1256,0.0
2,3, 1, 3, 0, 6,20.00,30.00,Friday
8,2328579.818750145
1256,0.0
2,3, 1, 3, 0, 6,30.00,40.00,Friday
8,2328579.818750145
1256,0.0
2,3, 1, 3, 0, 6,40.00,50.00,Friday
8,2328579.818750145
1256,0.0
2,3, 1, 3, 0, 6,50.00,60.00,Friday
8,3580488.8478407674
1256,0.0
2,3, 1, 3, 0, 7, 0.00,10.00,Friday
8,4415288.091359712
1256,0.0
2,3, 1, 3, 0, 7,10.00,20.00,Friday
8,3696359.1467061024
1256,0.0
2,3, 1, 3, 0, 7,20.00,30.00,Friday
8,3739125.936021872
1256,0.0
2,3, 1, 3, 0, 7,30.00,40.00,Friday
8,3805923.8427973287
1256,0.0
2,3, 1, 3, 0, 7,40.00,50.00,Friday
8,3739647.248960765
1256,0.0
2,3, 1, 3, 0, 7,50.00,60.00,Friday
8,3737890.450642909
1256,0.0
2,3, 1, 3, 0, 8, 0.00,10.00,Friday
8,5685781.692465397
1256,0.0
2,3, 1, 3, 0, 8,10.00,20.00,Friday
8,5678801.231871588
1256,0.0
2,3, 1, 3, 0, 8,20.00,30.00,Friday
8,5653453.042886838
1256,0.0
2,3, 1, 3, 0, 8,30.00,40.00,Friday
8,5639871.505472489
1256,0.0
2,3, 1, 3, 0, 8,40.00,50.00,Friday
8,5621120.741732692
1256,0.0
2,3, 1, 3, 0, 8,50.00,60.00,Friday
8,6884540.409240891
1256,0.0
2,3, 1, 3, 0, 9, 0.00,10.00,Friday
8,6545610.0090575535
1256,0.0
2,3, 1, 3, 0, 9,10.00,20.00,Friday
8,6503559.928182965
1256,0.0
2,3, 1, 3, 0, 9,20.00,30.00,Friday
8,6470824.8465625355
1256,0.0
2,3, 1, 3, 0, 9,30.00,40.00,Friday
8,7754022.791340843
1256,0.0
2,3, 1, 3, 0, 9,40.00,50.00,Friday
8,6412130.435552827
1256,0.0
2,3, 1, 3, 0, 9,50.00,60.00,Friday
8,6385592.321660985
1256,0.0
2,3, 1, 3, 0,10, 0.00,10.00,Friday
8,6555454.812025985
1256,0.0
2,3, 1, 3, 0,10,10.00,20.00,Friday
8,7478890.05016348
1256,0.0
2,3, 1, 3, 0,10,20.00,30.00,Friday
8,6326948.818201542
1256,0.0
2,3, 1, 3, 0,10,30.00,40.00,Friday
8,6309386.879358681
1256,0.0
2,3, 1, 3, 0,10,40.00,50.00,Friday
8,7616804.469933756
1256,0.0
2,3, 1, 3, 0,10,50.00,60.00,Friday
8,6276280.638657279
1256,0.0
2,3, 1, 3, 0,11, 0.00,10.00,Friday
8,5726881.683646076
1256,0.0
2,3, 1, 3, 0,11,10.00,20.00,Friday
8,7051250.603776147
1256,0.0
2,3, 1, 3, 0,11,20.00,30.00,Friday
8,5727768.73207828
1256,0.0
2,3, 1, 3, 0,11,30.00,40.00,Friday
8,5726506.187566444
1256,0.0
2,3, 1, 3, 0,11,40.00,50.00,Friday
8,7049228.313229725
1256,0.0
2,3, 1, 3, 0,11,50.00,60.00,Friday
8,5679120.880169133
1256,0.0
2,3, 1, 3, 0,12, 0.00,10.00,Friday
8,5632238.186253354
1256,0.0
2,3, 1, 3, 0,12,10.00,20.00,Friday
8,6921436.751229917
1256,0.0
2,3, 1, 3, 0,12,20.00,30.00,Friday
8,5546694.971436522
1256,0.0
2,3, 1, 3, 0,12,30.00,40.00,Friday
8,5499586.343118188
1256,0.0
2,3, 1, 3, 0,12,40.00,50.00,Friday
8,6832553.463969929
1256,0.0
2,3, 1, 3, 0,12,50.00,60.00,Friday
8,5477865.067526119
1256,0.0
2,3, 1, 3, 0,13, 0.00,10.00,Friday
8,7054218.4185202075
1256,0.0
2,3, 1, 3, 0,13,10.00,20.00,Friday
8,5712119.88320873
1256,0.0
2,3, 1, 3, 0,13,20.00,30.00,Friday
8,7055887.276677846
1256,0.0
2,3, 1, 3, 0,13,30.00,40.00,Friday
8,5664792.038826995
1256,0.0
2,3, 1, 3, 0,13,40.00,50.00,Friday
8,6062947.678082402
1256,0.0
2,3, 1, 3, 0,13,50.00,60.00,Friday
8,6641150.502144778
1256,0.0
2,3, 1, 3, 0,14, 0.00,10.00,Friday
8,5393289.692026369
1256,0.0
2,3, 1, 3, 0,14,10.00,20.00,Friday
8,6749561.868532617
1256,0.0
2,3, 1, 3, 0,14,20.00,30.00,Friday
8,5391734.397372296
1256,0.0
2,3, 1, 3, 0,14,30.00,40.00,Friday
8,6748657.519071809
1256,0.0
2,3, 1, 3, 0,14,40.00,50.00,Friday
8,5391537.288079164
1256,0.0
2,3, 1, 3, 0,14,50.00,60.00,Friday
8,5497467.30835218
1256,0.0
2,3, 1, 3, 0,15, 0.00,10.00,Friday
8,6606273.558670381
1256,0.0
2,3, 1, 3, 0,15,10.00,20.00,Friday
8,5398852.705013688
1256,0.0
2,3, 1, 3, 0,15,20.00,30.00,Friday
8,5421918.007090429
1256,0.0
2,3, 1, 3, 0,15,30.00,40.00,Friday
8,6770236.564951558
1256,0.0
2,3, 1, 3, 0,15,40.00,50.00,Friday
8,5430546.712186434
1256,0.0
2,3, 1, 3, 0,15,50.00,60.00,Friday
8,5435305.444623119
1256,0.0
2,3, 1, 3, 0,16, 0.00,10.00,Friday
8,5432245.274621658
1256,0.0
2,3, 1, 3, 0,16,10.00,20.00,Friday
8,6742826.980498698
1256,0.0
2,3, 1, 3, 0,16,20.00,30.00,Friday
8,5456960.352302392
1256,0.0
2,3, 1, 3, 0,16,30.00,40.00,Friday
8,5473881.295158973
1256,0.0
2,3, 1, 3, 0,16,40.00,50.00,Friday
8,5529443.617248918
1256,0.0
2,3, 1, 3, 0,16,50.00,60.00,Friday
8,6859571.166542531
1256,0.0
2,3, 1, 3, 0,17, 0.00,10.00,Friday
8,5564737.155120855
1256,0.0
2,3, 1, 3, 0,17,10.00,20.00,Friday
8,5595043.261594537
1256,0.0
2,3, 1, 3, 0,17,20.00,30.00,Friday
8,7479908.732407303
1256,0.0
2,3, 1, 3, 0,17,30.00,40.00,Friday
8,6144573.511276393
1256,0.0
2,3, 1, 3, 0,17,40.00,50.00,Friday
8,6351347.337852136
1256,0.0
2,3, 1, 3, 0,17,50.00,60.00,Friday
8,7270559.500185799
1256,0.0
2,3, 1, 3, 0,18, 0.00,10.00,Friday
8,5423304.477055033
1256,0.0
2,3, 1, 3, 0,18,10.00,20.00,Friday
8,5577651.075560736
1256,0.0
2,3, 1, 3, 0,18,20.00,30.00,Friday
8,5570801.8511660965
1256,0.0
2,3, 1, 3, 0,18,30.00,40.00,Friday
8,6901590.923244388
1256,0.0
2,3, 1, 3, 0,18,40.00,50.00,Friday
8,5641431.348468749
1256,0.0
2,3, 1, 3, 0,18,50.00,60.00,Friday
8,5672142.0984001085
1256,0.0
2,3, 1, 3, 0,19, 0.00,10.00,Friday
8,4209060.45213412
1256,0.0
2,3, 1, 3, 0,19,10.00,20.00,Friday
8,4478669.80767997
1256,0.0
2,3, 1, 3, 0,19,20.00,30.00,Friday
8,5705086.559188415
1256,0.0
2,3, 1, 3, 0,19,30.00,40.00,Friday
8,4527107.153290177
1256,0.0
2,3, 1, 3, 0,19,40.00,50.00,Friday
8,4409029.356761844
1256,0.0
2,3, 1, 3, 0,19,50.00,60.00,Friday
8,4482627.287534188
1256,0.0
2,3, 1, 3, 0,20, 0.00,10.00,Friday
8,2321977.4136761306
1256,0.0
2,3, 1, 3, 0,20,10.00,20.00,Friday
8,2321977.4136761306
1256,0.0
2,3, 1, 3, 0,20,20.00,30.00,Friday
8,2321977.4136761306
1256,0.0
2,3, 1, 3, 0,20,30.00,40.00,Friday
8,3593431.0047850837
1256,0.0
2,3, 1, 3, 0,20,40.00,50.00,Friday
8,2321977.4136761306
1256,0.0
2,3, 1, 3, 0,20,50.00,60.00,Friday
8,2321977.4136761306
1256,0.0
2,3, 1, 3, 0,21, 0.00,10.00,Friday
8,2111723.55556453
1256,0.0
2,3, 1, 3, 0,21,10.00,20.00,Friday
8,2111723.55556453
1256,0.0
2,3, 1, 3, 0,21,20.00,30.00,Friday
8,2111723.55556453
1256,0.0
2,3, 1, 3, 0,21,30.00,40.00,Friday
8,2111723.55556453
1256,0.0
2,3, 1, 3, 0,21,40.00,50.00,Friday
8,3199565.894079815
1256,0.0
2,3, 1, 3, 0,21,50.00,60.00,Friday
8,2305081.222007414
1256,0.0