Program Version,EnergyPlus, Version 22.2.0-aa78da9668, YMD=2023.06.11 20:26
1,5,Environment Title[],Latitude[deg],Longitude[deg],Time Zone[],Elevation[m]
2,8,Day of Simulation[],Month[],Day of Month[],DST Indicator[1=yes 0=no],Hour[],StartMinute[],EndMinute[],DayType
3,5,Cumulative Day of Simulation[],Month[],Day of Month[],DST Indicator[1=yes 0=no],DayType  ! When Daily Report Variables Requested
4,2,Cumulative Days of Simulation[],Month[]  ! When Monthly Report Variables Requested
5,1,Cumulative Days of Simulation[] ! When Run Period Report Variables Requested
6,1,Calendar Year of Simulation[] ! When Annual Report Variables Requested
1198,1,ZONE WAREHOUSE BULK A  - STORY GROUND,Zone Mean Air Temperature [C] !Hourly
1199,1,ZONE WAREHOUSE BULK A END_A - STORY GROUND,Zone Mean Air Temperature [C] !Hourly
1200,1,ZONE WAREHOUSE BULK B  - STORY GROUND,Zone Mean Air Temperature [C] !Hourly
1201,1,ZONE WAREHOUSE BULK B END_A - STORY GROUND,Zone Mean Air Temperature [C] !Hourly
1202,1,ZONE WAREHOUSE BULK C  - STORY GROUND,Zone Mean Air Temperature [C] !Hourly
1203,1,ZONE WAREHOUSE BULK C END_A - STORY GROUND,Zone Mean Air Temperature [C] !Hourly
1204,1,ZONE WAREHOUSE FINE A  - STORY GROUND,Zone Mean Air Temperature [C] !Hourly
1205,1,ZONE WAREHOUSE FINE A END_B - STORY GROUND,Zone Mean Air Temperature [C] !Hourly
1206,1,ZONE WAREHOUSE FINE B  - STORY GROUND,Zone Mean Air Temperature [C] !Hourly
1207,1,ZONE WAREHOUSE FINE B END_B - STORY GROUND,Zone Mean Air Temperature [C] !Hourly
1208,1,ZONE WAREHOUSE FINE C  - STORY GROUND,Zone Mean Air Temperature [C] !Hourly
1209,1,ZONE WAREHOUSE FINE C END_B - STORY GROUND,Zone Mean Air Temperature [C] !Hourly
1210,1,ZONE WAREHOUSE OFFICE A  - STORY GROUND,Zone Mean Air Temperature [C] !Hourly
1211,1,ZONE WAREHOUSE OFFICE B  - STORY GROUND,Zone Mean Air Temperature [C] !Hourly
1212,1,ZONE WAREHOUSE OFFICE C  - STORY GROUND,Zone Mean Air Temperature [C] !Hourly
8,1,Electricity:Facility [J] !TimeStep
2466,1,NaturalGas:Facility [J] !TimeStep
End of Data Dictionary
1,RUN PERIOD 1,  57.75,-152.50,  -9.00,   5.00
2,1, 1, 1, 0, 1, 0.00,60.00,Sunday
8,14959191.658256799
2466,40678309.37611059
2,1, 1, 1, 0, 1, 0.00,60.00,Sunday
1198,5.259494632536079
1199,5.502862746466816
1200,6.664309019684833
1201,3.624274920732214
1202,4.512910880555937
1203,4.8647890516253725
1204,15.559999999999874
1205,15.560000000000095
1206,15.559999999999974
1207,15.559999999999791
1208,15.559999999999791
1209,15.560000000000024
1210,15.59999999999985
1211,15.600000000000016
1212,15.599999999999488
2,1, 1, 1, 0, 2, 0.00,60.00,Sunday
8,14955034.259885924
2466,40546340.712495595
2,1, 1, 1, 0, 2, 0.00,60.00,Sunday
1198,5.109167199943096
1199,5.20762647870832
1200,6.5552316246882585
1201,3.465637646005101
1202,4.366111033530247
1203,4.60504328094938
1204,15.559999999999974
1205,15.55999999999998
1206,15.559999999999974
1207,15.55999999999997
1208,15.55999999999997
1209,15.559999999999977
1210,15.60000000000001
1211,15.600000000000016
1212,15.599999999999998
2,1, 1, 1, 0, 3, 0.00,60.00,Sunday
8,14906837.834434764
2466,38386183.580744565
2,1, 1, 1, 0, 3, 0.00,60.00,Sunday
1198,5.044579345244063
1199,5.184760748598335
1200,6.42591483125608
1201,3.3780942036833728
1202,4.305104613615897
1203,4.587851407089118
1204,15.559999999999974
1205,15.559999999999977
1206,15.559999999999977
1207,15.559999999999977
1208,15.559999999999976
1209,15.559999999999976
1210,15.600000000000017
1211,15.600000000000014
1212,15.600000000000016
2,1, 1, 1, 0, 4, 0.00,60.00,Sunday
8,16086681.298414497
2466,34730742.54179406
2,1, 1, 1, 0, 4, 0.00,60.00,Sunday
1198,5.284459306591938
1199,5.610202656330072
1200,6.454938095271951
1201,3.613037186099107
1202,4.5682821596785885
1203,4.983216033161064
1204,15.559999999999974
1205,15.559999999999974
1206,15.559999999999977
1207,15.55999999999997
1208,15.559999999999974
1209,15.559999999999974
1210,15.600000000000016
1211,15.600000000000016
1212,15.600000000000016
2,1, 1, 1, 0, 5, 0.00,60.00,Sunday
8,14829359.579180965
2466,34748235.422266044
2,1, 1, 1, 0, 5, 0.00,60.00,Sunday
1198,5.4717298895071655
1199,5.810729989684856
1200,6.517040194012667
1201,3.8237561047177184
1202,4.805225934301462
1203,5.201417448210323
1204,15.559999999999977
1205,15.559999999999976
1206,15.559999999999977
1207,15.559999999999976
1208,15.559999999999976
1209,15.559999999999976
1210,15.600000000000016
1211,15.600000000000017
1212,15.600000000000016
2,1, 1, 1, 0, 6, 0.00,60.00,Sunday
8,14715439.673219612
2466,29576104.274634846
2,1, 1, 1, 0, 6, 0.00,60.00,Sunday
1198,5.6960679202224025
1199,6.107825556556812
1200,6.57077095250423
1201,4.024648860003562
1202,5.053584834024895
1203,5.489605791390086
1204,15.559999999999976
1205,15.559999999999976
1206,15.559999999999976
1207,15.559999999999977
1208,15.559999999999976
1209,15.55999999999998
1210,15.600000000000016
1211,15.600000000000017
1212,15.600000000000016
2,1, 1, 1, 0, 7, 0.00,60.00,Sunday
8,17181084.050776366
2466,33811783.43333129
2,1, 1, 1, 0, 7, 0.00,60.00,Sunday
1198,5.696283048602878
1199,6.077709681293596
1200,6.619105118626376
1201,4.0754643964188935
1202,5.090241130849713
1203,5.4924625781179195
1204,15.559999999999974
1205,15.559999999999977
1206,15.559999999999976
1207,15.559999999999972
1208,15.559999999999976
1209,15.559999999999976
1210,15.600000000000017
1211,15.600000000000012
1212,15.600000000000016
2,1, 1, 1, 0, 8, 0.00,60.00,Sunday
8,15953724.771341715
2466,35228891.713583715
2,1, 1, 1, 0, 8, 0.00,60.00,Sunday
1198,5.615741789584591
1199,6.0034018862980645
1200,6.6608282268055685
1201,4.065780187791223
1202,5.047087234010097
1203,5.45445726463237
1204,15.559999999999974
1205,15.559999999999974
1206,15.559999999999974
1207,15.559999999999976
1208,15.559999999999974
1209,15.559999999999974
1210,15.600000000000016
1211,15.600000000000012
1212,15.600000000000014
2,1, 1, 1, 0, 9, 0.00,60.00,Sunday
8,15782776.075813357
2466,27496555.372779924
2,1, 1, 1, 0, 9, 0.00,60.00,Sunday
1198,5.838647889788577
1199,6.3653239227585985
1200,6.676699499232939
1201,4.212523621193922
1202,5.254004536096575
1203,5.7767821535076935
1204,15.559999999999974
1205,15.559999999999977
1206,15.559999999999974
1207,15.559999999999977
1208,15.559999999999976
1209,15.559999999999974
1210,15.600000000000017
1211,15.600000000000014
1212,15.600000000000012
2,1, 1, 1, 0,10, 0.00,60.00,Sunday
8,17183832.947437886
2466,33911384.56367588
2,1, 1, 1, 0,10, 0.00,60.00,Sunday
1198,5.875811274970152
1199,6.327535038809415
1200,6.710377175573995
1201,4.306369349677044
1202,5.313607240307952
1203,5.785441215636301
1204,15.559999999999974
1205,15.559999999999976
1206,15.559999999999977
1207,15.559999999999976
1208,15.559999999999974
1209,15.559999999999976
1210,15.600000000000014
1211,15.600000000000016
1212,15.600000000000014
2,1, 1, 1, 0,11, 0.00,60.00,Sunday
8,12678769.91751944
2466,35464902.49049655
2,1, 1, 1, 0,11, 0.00,60.00,Sunday
1198,6.180593344339593
1199,6.616742655987297
1200,6.837060962269964
1201,4.61188793596915
1202,5.526914155387946
1203,6.021903450175008
1204,15.559999999999977
1205,15.559999999999977
1206,15.559999999999976
1207,15.559999999999976
1208,15.559999999999974
1209,15.559999999999977
1210,15.600000000000017
1211,15.60000000000002
1212,15.600000000000016
2,1, 1, 1, 0,12, 0.00,60.00,Sunday
8,12694308.095044285
2466,36065382.8103587
2,1, 1, 1, 0,12, 0.00,60.00,Sunday
1198,6.586578845333589
1199,6.888860842430466
1200,7.082587630686691
1201,4.7945054580727895
1202,5.62237129563021
1203,6.037886866714038
1204,15.55990575013441
1205,15.559698937073724
1206,15.560000355119428
1207,15.559890292149838
1208,15.559890367898804
1209,15.559674869400975
1210,15.599938023997677
1211,15.60000042289936
1212,15.599928803856193
2,1, 1, 1, 0,13, 0.00,60.00,Sunday
8,14001114.025804048
2466,38187833.19332574
2,1, 1, 1, 0,13, 0.00,60.00,Sunday
1198,6.787826785581954
1199,7.026298624471514
1200,7.295464791238197
1201,4.885291067723148
1202,5.646241838254613
1203,6.060784355680075
1204,15.559999656698801
1205,15.559997421009347
1206,15.56000000009224
1207,15.559999462193504
1208,15.559999445057203
1209,15.559996760335489
1210,15.599999781881431
1211,15.600000000152558
1212,15.599999566190535
2,1, 1, 1, 0,14, 0.00,60.00,Sunday
8,12719593.047374096
2466,37155290.85856727
2,1, 1, 1, 0,14, 0.00,60.00,Sunday
1198,6.859668126642203
1199,7.126805732503819
1200,7.406309767612725
1201,4.9569375392370905
1202,5.685720333676247
1203,6.129271716768149
1204,15.559999983174556
1205,15.559999805658258
1206,15.56000000000117
1207,15.559999968930883
1208,15.559999968730567
1209,15.559999740132325
1210,15.599999990524847
1211,15.60000000000206
1212,15.59999997443215
2,1, 1, 1, 0,15, 0.00,60.00,Sunday
8,12673362.948543143
2466,35103975.213587366
2,1, 1, 1, 0,15, 0.00,60.00,Sunday
1198,6.772632474695113
1199,7.072017812176413
1200,7.415512737391766
1201,4.838621759336844
1202,5.527265918605223
1203,6.002210270912626
1204,15.559999999222244
1205,15.559999986072828
1206,15.559999999999992
1207,15.559999998269918
1208,15.55999999829004
1209,15.55999997975744
1210,15.599999999613459
1211,15.600000000000046
1212,15.599999998528595
2,1, 1, 1, 0,16, 0.00,60.00,Sunday
8,13908171.295737756
2466,34123296.244669415
2,1, 1, 1, 0,16, 0.00,60.00,Sunday
1198,6.571188143444165
1199,6.978957377269526
1200,7.299816191553162
1201,4.741300315433898
1202,5.426841581476232
1203,5.976522934368624
1204,15.5599999999634
1205,15.559999999025145
1206,15.559999999999976
1207,15.559999999907676
1208,15.559999999910088
1209,15.559999998506122
1210,15.599999999983627
1211,15.600000000000016
1212,15.599999999916985
2,1, 1, 1, 0,17, 0.00,60.00,Sunday
8,15978949.202988086
2466,36283236.28389618
2,1, 1, 1, 0,17, 0.00,60.00,Sunday
1198,6.285481515124104
1199,6.665435784752198
1200,7.17619078717517
1201,4.56200403982171
1202,5.294285974698186
1203,5.796646201190902
1204,15.559999999999194
1205,15.559999999968095
1206,15.559999999999976
1207,15.559999999997823
1208,15.55999999999786
1209,15.55999999994865
1210,15.599999999999657
1211,15.600000000000017
1212,15.599999999997742
2,1, 1, 1, 0,18, 0.00,60.00,Sunday
8,16052084.611767953
2466,39599689.267657846
2,1, 1, 1, 0,18, 0.00,60.00,Sunday
1198,5.957978906990288
1199,6.342226266095999
1200,7.035323637355804
1201,4.3607375770244055
1202,5.109622068427337
1203,5.593898138923172
1204,15.55998551967443
1205,15.559992648062014
1206,15.560000384287754
1207,15.55998314143356
1208,15.559981486003164
1209,15.559989172967295
1210,15.599983519097957
1211,15.600000341961778
1212,15.599975318302668
2,1, 1, 1, 0,19, 0.00,60.00,Sunday
8,17445788.708665527
2466,45702016.01823798
2,1, 1, 1, 0,19, 0.00,60.00,Sunday
1198,5.696810309856291
1199,5.958572516839343
1200,6.978319067988677
1201,4.193906287722451
1202,4.91366332701015
1203,5.319056068080796
1204,15.559968694219574
1205,15.559980398632046
1206,15.560000703479549
1207,15.559964990078818
1208,15.559964603932503
1209,15.559977840896181
1210,15.599971667524482
1211,15.600000622885464
1212,15.599963839451302
2,1, 1, 1, 0,20, 0.00,60.00,Sunday
8,16284717.09760042
2466,50113007.29157305
2,1, 1, 1, 0,20, 0.00,60.00,Sunday
1198,5.410503394875091
1199,5.5061168033370596
1200,6.936154727759288
1201,3.960328463259275
1202,4.667421941761101
1203,4.9721958271946445
1204,15.559985996802673
1205,15.560001723525772
1206,15.56000063222156
1207,15.55998413841462
1208,15.559983375124585
1209,15.560000563955107
1210,15.599984848433818
1211,15.600000583466565
1212,15.599978927600784
2,1, 1, 1, 0,21, 0.00,60.00,Sunday
8,16079243.427919915
2466,40832772.26679007
2,1, 1, 1, 0,21, 0.00,60.00,Sunday
1198,5.49307948374357
1199,5.7165610606209585
1200,6.885162844056851
1201,3.9766549598759138
1202,4.74344625251732
1203,5.169664717041276
1204,15.55999991979286
1205,15.560000021262923
1206,15.56000000023823
1207,15.559999892896283
1208,15.559999893257135
1209,15.560000007334565
1210,15.599999910752448
1211,15.600000000259518
1212,15.599999841083127
2,1, 1, 1, 0,22, 0.00,60.00,Sunday
8,16013993.83212359
2466,37886095.31897957
2,1, 1, 1, 0,22, 0.00,60.00,Sunday
1198,5.635838305446348
1199,5.947212776791332
1200,6.84005113703346
1201,4.052802276616099
1202,4.884427302136374
1203,5.31763474060469
1204,15.559999995899481
1205,15.560000001584475
1206,15.560000000003718
1207,15.559999993996419
1208,15.559999994142498
1209,15.560000000566433
1210,15.599999995242632
1211,15.60000000000427
1212,15.599999990284743
2,1, 1, 1, 0,23, 0.00,60.00,Sunday
8,17116376.860852394
2466,30858715.010236517
2,1, 1, 1, 0,23, 0.00,60.00,Sunday
1198,5.814663029989866
1199,6.225696512830846
1200,6.77742663916278
1201,4.135094525946413
1202,5.049740876225507
1203,5.5320939394867725
1204,15.559999999828078
1205,15.560000000093934
1206,15.560000000000034
1207,15.559999999724743
1208,15.55999999972987
1209,15.560000000035455
1210,15.599999999775987
1211,15.600000000000085
1212,15.599999999464348
2,1, 1, 1, 0,24, 0.00,60.00,Sunday
8,15874440.389692588
2466,31671526.094827127
2,1, 1, 1, 0,24, 0.00,60.00,Sunday
1198,5.815623825349158
1199,6.236897026444751
1200,6.708415728580518
1201,4.100741402897878
1202,5.063938691385703
1203,5.543524569560563
1204,15.559999999992595
1205,15.560000000005678
1206,15.559999999999977
1207,15.559999999987083
1208,15.559999999987298
1209,15.56000000000224
1210,15.599999999989317
1211,15.600000000000016
1212,15.599999999970224
2,2, 1, 2, 0, 1, 0.00,60.00,Monday
8,104272822.77604553
2466,14274777.3644156
2,2, 1, 2, 0, 1, 0.00,60.00,Monday
1198,9.07341357502399
1199,8.164165929496582
1200,11.648850826787948
1201,7.487183868741319
1202,8.606381308521915
1203,7.506641397212926
1204,15.559999999999974
1205,15.55999999999998
1206,17.297955207262635
1207,15.559999999999972
1208,15.559999999999972
1209,15.559999999999976
1210,15.600000000000005
1211,15.60000000000002
1212,15.599999999999975
2,2, 1, 2, 0, 2, 0.00,60.00,Monday
8,105408946.68634146
2466,8487543.22065472
2,2, 1, 2, 0, 2, 0.00,60.00,Monday
1198,10.15788799915082
1199,8.902529759499132
1200,12.853751531931936
1201,8.477958861367835
1202,9.531882130976623
1203,8.255779583674704
1204,15.721729703607616
1205,15.559999999999977
1206,17.44530595692509
1207,15.815396992567328
1208,15.548251889050176
1209,15.559999999999976
1210,15.60000000000002
1211,15.60000000000002
1212,15.600000000000016
2,2, 1, 2, 0, 3, 0.00,60.00,Monday
8,104156416.53265473
2466,8606712.299309408
2,2, 1, 2, 0, 3, 0.00,60.00,Monday
1198,10.891947233368372
1199,9.414012050174536
1200,13.870344510532373
1201,9.260615082395692
1202,10.258291543590156
1203,8.80110440416186
1204,15.631588818496022
1205,15.559999999999977
1206,17.763813611378055
1207,15.728863782900012
1208,15.559992341408677
1209,15.559999999999974
1210,15.600000000000014
1211,15.600000000000016
1212,15.600000000000016
2,2, 1, 2, 0, 4, 0.00,60.00,Monday
8,104331216.09152389
2466,16462225.26010545
2,2, 1, 2, 0, 4, 0.00,60.00,Monday
1198,10.860318784055385
1199,9.220623805911332
1200,14.39645205045337
1201,9.362281300541738
1202,10.235884935539314
1203,8.675565432578637
1204,15.560186379931727
1205,15.559999999999974
1206,17.901914072950806
1207,15.560331699143811
1208,15.559999967848793
1209,15.559999999999976
1210,15.600000000000014
1211,15.711036692537567
1212,15.600000000000014
2,2, 1, 2, 0, 5, 0.00,60.00,Monday
8,105621661.21436301
2466,17929052.5199111
2,2, 1, 2, 0, 5, 0.00,60.00,Monday
1198,10.96169144428005
1199,9.268202927822962
1200,14.806211628050445
1201,9.549833521435644
1202,10.354226817015094
1203,8.757913042407827
1204,15.56000113899027
1205,15.559999999999976
1206,18.03124399138581
1207,15.56000198018235
1208,15.559999999738958
1209,15.559999999999976
1210,15.600000000000012
1211,15.902935504442272
1212,15.600000000000016
2,2, 1, 2, 0, 6, 0.00,60.00,Monday
8,104177854.2671693
2466,9352442.69051693
2,2, 1, 2, 0, 6, 0.00,60.00,Monday
1198,11.610078261781283
1199,9.903224420021672
1200,15.15913556682721
1201,10.162882251809027
1202,10.981871722800557
1203,9.444678434121247
1204,15.537463817381258
1205,15.559999999999972
1206,18.13720819083826
1207,15.543130604300142
1208,15.559999999999583
1209,15.559999999999974
1210,15.600000000000014
1211,16.11191254525959
1212,15.600000000000014
2,2, 1, 2, 0, 7, 0.00,60.00,Monday
8,113326305.9873419
2466,34049655.6808257
2,2, 1, 2, 0, 7, 0.00,60.00,Monday
1198,11.412035489390885
1199,9.587862267986345
1200,15.518344079344566
1201,10.070060128968066
1202,10.826337612097568
1203,9.137502126505781
1204,15.559985800662723
1205,15.559999999999972
1206,18.261794015554926
1207,15.559990003928782
1208,15.559999999999974
1209,15.559999999999974
1210,20.70569006008859
1211,20.678752999703693
1212,20.72264788583192
2,2, 1, 2, 0, 8, 0.00,60.00,Monday
8,126519100.89948526
2466,24545186.39963135
2,2, 1, 2, 0, 8, 0.00,60.00,Monday
1198,11.674863470263642
1199,9.747083353911432
1200,15.977533490493435
1201,10.323940306017946
1202,11.105062262128769
1203,9.308967022122406
1204,15.55999995767785
1205,15.559999999999974
1206,18.598018301702744
1207,15.559999957000766
1208,15.559999999999974
1209,15.559999999999974
1210,20.967527265679777
1211,20.93306799716531
1212,20.97665900088073
2,2, 1, 2, 0, 9, 0.00,60.00,Monday
8,402575276.5060128
2466,1148863.8494259263
2,2, 1, 2, 0, 9, 0.00,60.00,Monday
1198,21.681408932207134
1199,16.534460321394633
1200,26.805350276663763
1201,19.835449590768476
1202,21.030240253802667
1203,15.975586059805066
1204,23.093804033101147
1205,20.01282010519917
1206,25.42580961836645
1207,23.455769034588794
1208,22.639207738357406
1209,19.791131908380084
1210,21.099022565972266
1211,22.768872321077986
1212,21.099120019515333
2,2, 1, 2, 0,10, 0.00,60.00,Monday
8,404917581.5680524
2466,0.0
2,2, 1, 2, 0,10, 0.00,60.00,Monday
1198,23.854254177360698
1199,18.144143702646698
1200,30.20229339504346
1201,21.89865501346404
1202,23.240680822950836
1203,17.620241619381176
1204,23.406020963407872
1205,21.00976237717907
1206,26.742140386025557
1207,24.280086807619853
1208,23.081532562644075
1209,20.80263811729981
1210,22.416109660882455
1211,24.75102541023996
1212,22.16288172252073
2,2, 1, 2, 0,11, 0.00,60.00,Monday
8,403035824.55288535
2466,0.0
2,2, 1, 2, 0,11, 0.00,60.00,Monday
1198,26.33651425784391
1199,20.05632328581654
1200,33.476118929488685
1201,24.130859753121584
1202,25.387928900382505
1203,19.254488560975094
1204,24.884783085148147
1205,22.13892493196912
1206,28.792472759711874
1207,25.749963889714394
1208,24.287274870656233
1209,21.700480705258638
1210,23.754040180108582
1211,26.721683860675768
1212,23.243887742174856
2,2, 1, 2, 0,12, 0.00,60.00,Monday
8,401563845.9377996
2466,0.0
2,2, 1, 2, 0,12, 0.00,60.00,Monday
1198,27.734833022303494
1199,21.154961570039852
1200,35.61542970139457
1201,25.388027290494662
1202,26.526407481964277
1203,20.1455722694454
1204,25.66426675619615
1205,22.62137506773522
1206,30.14586489949615
1207,26.32551314301493
1208,24.87213163155078
1209,22.010935034310076
1210,24.973755689794526
1211,28.43706135329973
1212,24.204171928247877
2,2, 1, 2, 0,13, 0.00,60.00,Monday
8,131265971.59184189
2466,0.0
2,2, 1, 2, 0,13, 0.00,60.00,Monday
1198,23.04088332452295
1199,17.467597499178417
1200,29.285761733065655
1201,20.816056751985624
1202,21.673017623003773
1203,16.323177248345427
1204,22.4242845834099
1205,19.073926515210555
1206,26.51128872025851
1207,22.264303094360116
1208,21.481071558194397
1209,18.33087688848401
1210,26.275883670203847
1211,30.1180282902904
1212,25.25961658067224
2,2, 1, 2, 0,14, 0.00,60.00,Monday
8,402941156.1913568
2466,0.0
2,2, 1, 2, 0,14, 0.00,60.00,Monday
1198,32.920501116032334
1199,24.036112794223275
1200,39.51575390467114
1201,30.293756951476983
1202,31.232291937265305
1203,23.004682472157988
1204,30.025405897800535
1205,24.70099012473149
1206,33.343786708406334
1207,30.79069461041627
1208,28.958201179856918
1209,23.88229204510538
1210,27.358026775929563
1211,30.890953068637373
1212,26.170373521850554
2,2, 1, 2, 0,15, 0.00,60.00,Monday
8,401776873.7238418
2466,0.0
2,2, 1, 2, 0,15, 0.00,60.00,Monday
1198,32.643244869405066
1199,24.77894163485518
1200,39.925867756229614
1201,30.033589689760092
1202,31.026733636014956
1203,23.553033016688204
1204,29.036528267936806
1205,24.92892493959006
1206,33.21337304961364
1207,29.699167853492195
1208,27.94207928343824
1209,24.012900684406564
1210,28.593192418590288
1211,32.33707486030046
1212,27.353940460368875
2,2, 1, 2, 0,16, 0.00,60.00,Monday
8,401456266.3733158
2466,0.0
2,2, 1, 2, 0,16, 0.00,60.00,Monday
1198,34.03833953036967
1199,26.220355096962585
1200,41.73990861142593
1201,31.5982552435491
1202,32.555155932732674
1203,25.07095735102927
1204,30.02189441648658
1205,25.88837958282335
1206,34.5940110110957
1207,30.61448124360252
1208,28.97909860153959
1209,25.01514716527374
1210,29.60079540074052
1211,33.53680233368648
1212,28.37223712219639
2,2, 1, 2, 0,17, 0.00,60.00,Monday
8,401314638.83844775
2466,0.0
2,2, 1, 2, 0,17, 0.00,60.00,Monday
1198,33.81928487947121
1199,26.14671955612733
1200,42.45712648221611
1201,31.596881847979624
1202,32.55262074892022
1203,25.120565030816614
1204,29.892327511915113
1205,25.62286892869673
1206,35.20729625789133
1207,30.348273773336192
1208,28.952371608620776
1209,24.853184669487653
1210,29.98915185226141
1211,34.3697940968796
1212,28.829305680444957
2,2, 1, 2, 0,18, 0.00,60.00,Monday
8,121240159.47594725
2466,0.0
2,2, 1, 2, 0,18, 0.00,60.00,Monday
1198,29.375159869468447
1199,23.283111918440877
1200,35.10235060751582
1201,27.31933227966697
1202,28.16983613085373
1203,22.268067513873856
1204,26.917021642336262
1205,23.18582916821142
1206,30.98256144868641
1207,26.833016491396563
1208,26.005269236765628
1209,22.42332903629394
1210,29.7384673578105
1211,33.79731681128284
1212,28.63411218056168
2,2, 1, 2, 0,19, 0.00,60.00,Monday
8,103350306.89160971
2466,0.0
2,2, 1, 2, 0,19, 0.00,60.00,Monday
1198,26.6627111158158
1199,21.009049853293
1200,32.56118715996776
1201,24.771871325360472
1202,25.516241907090105
1203,20.07182501453937
1204,25.39473436675084
1205,21.337400805804595
1206,29.80160317884107
1207,24.96046493604779
1208,24.52597262266233
1209,20.627521319633313
1210,27.17913535884408
1211,31.09700119561147
1212,26.140334509846916
2,2, 1, 2, 0,20, 0.00,60.00,Monday
8,102181227.39523403
2466,0.0
2,2, 1, 2, 0,20, 0.00,60.00,Monday
1198,24.622287030480933
1199,19.269730204216867
1200,30.218910506091404
1201,22.822871132363275
1202,23.514200485543917
1203,18.38223183341408
1204,24.240661798698113
1205,20.00010494031869
1206,28.624531067776665
1207,23.616138762637352
1208,23.387355830931597
1209,19.32142800361884
1210,25.80932317959193
1211,29.821030861026184
1212,24.842674993380882
2,2, 1, 2, 0,21, 0.00,60.00,Monday
8,103440161.98228338
2466,0.0
2,2, 1, 2, 0,21, 0.00,60.00,Monday
1198,23.078509421239726
1199,17.68601090741387
1200,29.04413599263009
1201,21.33615260675986
1202,22.00972835432298
1203,16.85985094054687
1204,23.272652926202735
1205,18.781514354712957
1206,27.963027031866176
1207,22.594543948840112
1208,22.442548795430746
1209,18.13971905815063
1210,24.53621889202877
1211,28.68362608541834
1212,23.604708984096487
2,2, 1, 2, 0,22, 0.00,60.00,Monday
8,102181227.39523403
2466,0.0
2,2, 1, 2, 0,22, 0.00,60.00,Monday
1198,22.71896441757297
1199,17.4372297125927
1200,28.191347614899154
1201,20.893331043143032
1202,21.631695454580907
1203,16.602752888816788
1204,23.07595077465893
1205,18.803575279100038
1206,27.41373096593084
1207,22.45495073074971
1208,22.242605447600518
1209,18.151187967291587
1210,24.021320750713304
1211,27.917680920863706
1212,23.094991066880528
2,2, 1, 2, 0,23, 0.00,60.00,Monday
8,102181227.39523403
2466,0.0
2,2, 1, 2, 0,23, 0.00,60.00,Monday
1198,21.847284961194553
1199,16.381663395256233
1200,27.55696557654921
1201,20.00062510369654
1202,20.776415099267975
1203,15.562381774507335
1204,22.401088721708412
1205,17.956182385495318
1206,27.01409258124851
1207,21.8057185830813
1208,21.58856334529148
1209,17.289105223284274
1210,23.154287962194147
1211,27.32574392225679
1212,22.257121506241965
2,2, 1, 2, 0,24, 0.00,60.00,Monday
8,103440054.27961427
2466,0.0
2,2, 1, 2, 0,24, 0.00,60.00,Monday
1198,21.888995911195487
1199,16.443650278279584
1200,27.35310141020756
1201,19.955814359527725
1202,20.797297244911114
1203,15.58450470616982
1204,22.376140510385003
1205,18.124142551689395
1206,26.765273419353434
1207,21.833969977629508
1208,21.55007824906703
1209,17.434456892644704
1210,22.91235502669737
1211,26.94160494424005
1212,22.008494445193065
2,3, 1, 3, 0, 1, 0.00,60.00,Tuesday
8,101068503.39523403
2466,0.0
2,3, 1, 3, 0, 1, 0.00,60.00,Tuesday
1198,21.26641634696493
1199,15.595954030423387
1200,27.1334814490687
1201,19.363269686177272
1202,20.221048042762423
1203,14.78692468508763
1204,21.794974041461344
1205,17.34566077447631
1206,26.532409720896805
1207,21.304495333456785
1208,20.994194803940164
1209,16.6911298893506
1210,22.299317948813986
1211,26.625206564096665
1212,21.41582953536308
2,3, 1, 3, 0, 2, 0.00,60.00,Tuesday
8,101068503.39523403
2466,0.0
2,3, 1, 3, 0, 2, 0.00,60.00,Tuesday
1198,21.15125096246755
1199,15.479783101991366
1200,26.958171724366835
1201,19.23241385426525
1202,20.112260026626107
1203,14.670874803943192
1204,21.66206677185619
1205,17.311967208562447
1206,26.32551474462225
1207,21.209541443931126
1208,20.86768522295445
1209,16.64589144080063
1210,22.087720450320695
1211,26.377281205633242
1212,21.214263240890876
2,3, 1, 3, 0, 3, 0.00,60.00,Tuesday
8,102327276.91883019
2466,0.0
2,3, 1, 3, 0, 3, 0.00,60.00,Tuesday
1198,21.06812814590147
1199,15.328514095164744
1200,26.86143539975271
1201,19.142035292642007
1202,20.059862331611065
1203,14.529024378812693
1204,21.4833857080984
1205,17.154441714030025
1206,26.16837314585907
1207,21.084542504031642
1208,20.698318894228333
1209,16.50241378243849
1210,21.846489457362487
1211,26.20326334679736
1212,20.983673300868393
2,3, 1, 3, 0, 4, 0.00,60.00,Tuesday
8,101068503.39523403
2466,0.0
2,3, 1, 3, 0, 4, 0.00,60.00,Tuesday
1198,21.348988119117525
1199,15.676620348914376
1200,26.86175979267616
1201,19.39445761343447
1202,20.37116620247948
1203,14.868130031670333
1204,21.59942472032842
1205,17.44918265439528
1206,26.08171527255063
1207,21.26050677826978
1208,20.812392591646088
1209,16.792719203576063
1210,21.87149242252101
1211,26.098775550211123
1212,21.012212642152534
2,3, 1, 3, 0, 5, 0.00,60.00,Tuesday
8,101068503.39523403
2466,0.0
2,3, 1, 3, 0, 5, 0.00,60.00,Tuesday
1198,21.466752217259224
1199,15.789165591321213
1200,26.897136176344173
1201,19.52328193358158
1202,20.515030558838028
1203,14.987496407715078
1204,21.556998978142133
1205,17.489805942381977
1206,26.008681662732613
1207,21.278377908377397
1208,20.777626044521895
1209,16.839048028639116
1210,21.78382307522716
1211,26.016570708696477
1212,20.938194185638256
2,3, 1, 3, 0, 6, 0.00,60.00,Tuesday
8,102449979.74608622
2466,0.0
2,3, 1, 3, 0, 6, 0.00,60.00,Tuesday
1198,21.078126164434494
1199,15.233819858289243
1200,26.987507314030736
1201,19.173130047293952
1202,20.151311071033287
1203,14.494145431358177
1204,21.167080608898416
1205,16.869436203551068
1206,25.98763944866485
1207,20.86552157575496
1208,20.41521406965858
1209,16.256638093448366
1210,21.537364423765744
1211,26.02740589729388
1212,20.710682583122743
2,3, 1, 3, 0, 7, 0.00,60.00,Tuesday
8,110122393.9500406
2466,0.0
2,3, 1, 3, 0, 7, 0.00,60.00,Tuesday
1198,20.914513740722185
1199,15.035718603200356
1200,27.09620844162862
1201,19.065671000045935
1202,20.00457753413917
1203,14.323275480192427
1204,20.99272747524723
1205,16.59994839689592
1206,25.957508699307205
1207,20.683691558630038
1208,20.258607243187658
1209,16.00345196218627
1210,22.24955869219331
1211,26.755811631258386
1212,21.417162917293183
2,3, 1, 3, 0, 8, 0.00,60.00,Tuesday
8,122105002.5298718
2466,0.0
2,3, 1, 3, 0, 8, 0.00,60.00,Tuesday
1198,20.73591564744514
1199,14.706392769628858
1200,27.309981018206784
1201,18.934051452114254
1202,19.85536506750639
1203,14.027914999989823
1204,20.778205659312427
1205,16.195488258606737
1206,26.04323022776791
1207,20.459371091132407
1208,20.065452758883396
1209,15.621905379838484
1210,23.40427173190787
1211,28.104213602585997
1212,22.58888648917796
2,3, 1, 3, 0, 9, 0.00,60.00,Tuesday
8,403834227.14459926
2466,0.0
2,3, 1, 3, 0, 9, 0.00,60.00,Tuesday
1198,30.57072294232679
1199,22.112586010805888
1200,37.8772180211931
1201,27.664709040641558
1202,29.278972477079012
1203,21.256542774011347
1204,27.60291043007476
1205,22.517768636324465
1206,32.709022328582
1207,27.896673447792505
1208,26.712803160261313
1209,21.82740615886065
1210,25.85607593328118
1211,30.931312700283645
1212,25.050190057130873
2,3, 1, 3, 0,10, 0.00,60.00,Tuesday
8,404917581.5680524
2466,0.0
2,3, 1, 3, 0,10, 0.00,60.00,Tuesday
1198,32.49335142080325
1199,24.000883871187447
1200,40.92657252346033
1201,29.882375949210083
1202,31.437617083151196
1203,23.220726275572083
1204,28.122052461082184
1205,23.65586247204568
1206,33.77401485616582
1207,28.888098908837755
1208,27.34831674885394
1209,23.022029472726622
1210,27.75636881127754
1211,32.97188306692345
1212,26.91697420927054
2,3, 1, 3, 0,11, 0.00,60.00,Tuesday
8,401776873.7238418
2466,0.0
2,3, 1, 3, 0,11, 0.00,60.00,Tuesday
1198,35.32378388858865
1199,26.610613607040214
1200,43.96089765354812
1201,32.630184631761495
1202,34.14328260301679
1203,25.678530247378127
1204,29.941012152729446
1205,25.5443341345622
1206,35.6682593885795
1207,30.766974837219053
1208,29.040756127573776
1209,24.8060552009246
1210,29.583308452299903
1211,34.93879275466714
1212,28.63580765916719
2,3, 1, 3, 0,12, 0.00,60.00,Tuesday
8,401563845.9377996
2466,0.0
2,3, 1, 3, 0,12, 0.00,60.00,Tuesday
1198,37.48681595645842
1199,28.932102056308327
1200,45.93301301148941
1201,34.80842006894365
1202,36.23430198013416
1203,27.883473078397913
1204,31.317878309760136
1205,27.131915153665943
1206,36.93009600266652
1207,32.10795801642987
1208,30.328261019430766
1209,26.298482003968154
1210,31.356703765210277
1211,36.67759465804221
1212,30.303170981235386
2,3, 1, 3, 0,13, 0.00,60.00,Tuesday
8,132524928.35063899
2466,0.0
2,3, 1, 3, 0,13, 0.00,60.00,Tuesday
1198,33.05594014230615
1199,25.861137011092968
1200,39.47405577807596
1201,30.690263701393285
1202,31.858109774534544
1203,24.829118102164152