Program Version,EnergyPlus, Version 22.2.0-aa78da9668, YMD=2023.04.24 11:46
1,5,Environment Title[],Latitude[deg],Longitude[deg],Time Zone[],Elevation[m]
2,8,Day of Simulation[],Month[],Day of Month[],DST Indicator[1=yes 0=no],Hour[],StartMinute[],EndMinute[],DayType
3,5,Cumulative Day of Simulation[],Month[],Day of Month[],DST Indicator[1=yes 0=no],DayType  ! When Daily Report Variables Requested
4,2,Cumulative Days of Simulation[],Month[]  ! When Monthly Report Variables Requested
5,1,Cumulative Days of Simulation[] ! When Run Period Report Variables Requested
6,1,Calendar Year of Simulation[] ! When Annual Report Variables Requested
8,1,Electricity:Facility [J] !TimeStep
2018,1,DistrictHeating:Facility [J] !TimeStep
End of Data Dictionary
1,KODIAK ANN CLG .4% CONDNS DB=>MWB HVAC Sizing Pass 1,  57.75,-152.49,  -9.00,  34.00
2,1, 8,21, 0, 1, 0.00,10.00,SummerDesignDay
8,29393986.684213854
2018,0.0
2,1, 8,21, 0, 1,10.00,20.00,SummerDesignDay
8,29372010.38311874
2018,0.0
2,1, 8,21, 0, 1,20.00,30.00,SummerDesignDay
8,29349501.092645474
2018,0.0
2,1, 8,21, 0, 1,30.00,40.00,SummerDesignDay
8,29326810.330131967
2018,0.0
2,1, 8,21, 0, 1,40.00,50.00,SummerDesignDay
8,29304192.213724483
2018,0.0
2,1, 8,21, 0, 1,50.00,60.00,SummerDesignDay
8,29281673.255037073
2018,0.0
2,1, 8,21, 0, 2, 0.00,10.00,SummerDesignDay
8,29261388.691134077
2018,0.0
2,1, 8,21, 0, 2,10.00,20.00,SummerDesignDay
8,29241357.38190484
2018,0.0
2,1, 8,21, 0, 2,20.00,30.00,SummerDesignDay
8,29221580.33213621
2018,0.0
2,1, 8,21, 0, 2,30.00,40.00,SummerDesignDay
8,29202088.05824729
2018,0.0
2,1, 8,21, 0, 2,40.00,50.00,SummerDesignDay
8,29182937.308183044
2018,0.0
2,1, 8,21, 0, 2,50.00,60.00,SummerDesignDay
8,29164259.86013918
2018,0.0
2,1, 8,21, 0, 3, 0.00,10.00,SummerDesignDay
8,29147174.530443694
2018,0.0
2,1, 8,21, 0, 3,10.00,20.00,SummerDesignDay
8,29129262.070413582
2018,0.0
2,1, 8,21, 0, 3,20.00,30.00,SummerDesignDay
8,29111323.44650971
2018,0.0
2,1, 8,21, 0, 3,30.00,40.00,SummerDesignDay
8,29093365.004486054
2018,0.0
2,1, 8,21, 0, 3,40.00,50.00,SummerDesignDay
8,29075418.51311567
2018,0.0
2,1, 8,21, 0, 3,50.00,60.00,SummerDesignDay
8,29057508.36805018
2018,0.0
2,1, 8,21, 0, 4, 0.00,10.00,SummerDesignDay
8,29039651.08776626
2018,0.0
2,1, 8,21, 0, 4,10.00,20.00,SummerDesignDay
8,29021857.851666976
2018,0.0
2,1, 8,21, 0, 4,20.00,30.00,SummerDesignDay
8,29004136.23285484
2018,0.0
2,1, 8,21, 0, 4,30.00,40.00,SummerDesignDay
8,28986491.526056852
2018,0.0
2,1, 8,21, 0, 4,40.00,50.00,SummerDesignDay
8,28969688.390011225
2018,0.0
2,1, 8,21, 0, 4,50.00,60.00,SummerDesignDay
8,28956742.673609395
2018,0.0
2,1, 8,21, 0, 5, 0.00,10.00,SummerDesignDay
8,28944681.80241076
2018,0.0
2,1, 8,21, 0, 5,10.00,20.00,SummerDesignDay
8,28932702.175520003
2018,0.0
2,1, 8,21, 0, 5,20.00,30.00,SummerDesignDay
8,28920783.91866175
2018,0.0
2,1, 8,21, 0, 5,30.00,40.00,SummerDesignDay
8,28908927.51606215
2018,0.0
2,1, 8,21, 0, 5,40.00,50.00,SummerDesignDay
8,28897149.227869276
2018,0.0
2,1, 8,21, 0, 5,50.00,60.00,SummerDesignDay
8,30140213.88367864
2018,0.0
2,1, 8,21, 0, 6, 0.00,10.00,SummerDesignDay
8,28877448.762446947
2018,0.0
2,1, 8,21, 0, 6,10.00,20.00,SummerDesignDay
8,28869175.00571911
2018,0.0
2,1, 8,21, 0, 6,20.00,30.00,SummerDesignDay
8,28860948.144052606
2018,0.0
2,1, 8,21, 0, 6,30.00,40.00,SummerDesignDay
8,28852777.40442765
2018,0.0
2,1, 8,21, 0, 6,40.00,50.00,SummerDesignDay
8,28852270.272518754
2018,0.0
2,1, 8,21, 0, 6,50.00,60.00,SummerDesignDay
8,26437264.154116716
2018,0.0
2,1, 8,21, 0, 7, 0.00,10.00,SummerDesignDay
8,28541027.926696416
2018,0.0
2,1, 8,21, 0, 7,10.00,20.00,SummerDesignDay
8,27232580.021325823
2018,0.0
2,1, 8,21, 0, 7,20.00,30.00,SummerDesignDay
8,25894439.08610284
2018,0.0
2,1, 8,21, 0, 7,30.00,40.00,SummerDesignDay
8,26232148.540459283
2018,0.0
2,1, 8,21, 0, 7,40.00,50.00,SummerDesignDay
8,25902526.763913903
2018,0.0
2,1, 8,21, 0, 7,50.00,60.00,SummerDesignDay
8,25978391.034802463
2018,0.0
2,1, 8,21, 0, 8, 0.00,10.00,SummerDesignDay
8,29528553.531637423
2018,0.0
2,1, 8,21, 0, 8,10.00,20.00,SummerDesignDay
8,28672999.742298905
2018,0.0
2,1, 8,21, 0, 8,20.00,30.00,SummerDesignDay
8,28124017.652472183
2018,0.0
2,1, 8,21, 0, 8,30.00,40.00,SummerDesignDay
8,28594163.18091468
2018,0.0
2,1, 8,21, 0, 8,40.00,50.00,SummerDesignDay
8,28738504.327132348
2018,0.0
2,1, 8,21, 0, 8,50.00,60.00,SummerDesignDay
8,29148886.80781133
2018,0.0
2,1, 8,21, 0, 9, 0.00,10.00,SummerDesignDay
8,37924816.049374
2018,0.0
2,1, 8,21, 0, 9,10.00,20.00,SummerDesignDay
8,37388646.7337717
2018,0.0
2,1, 8,21, 0, 9,20.00,30.00,SummerDesignDay
8,37061064.33869544
2018,0.0
2,1, 8,21, 0, 9,30.00,40.00,SummerDesignDay
8,36991019.70377803
2018,0.0
2,1, 8,21, 0, 9,40.00,50.00,SummerDesignDay
8,36963940.04998012
2018,0.0
2,1, 8,21, 0, 9,50.00,60.00,SummerDesignDay
8,37100424.47909521
2018,0.0
2,1, 8,21, 0,10, 0.00,10.00,SummerDesignDay
8,37217604.01755829
2018,0.0
2,1, 8,21, 0,10,10.00,20.00,SummerDesignDay
8,37320131.06952722
2018,0.0
2,1, 8,21, 0,10,20.00,30.00,SummerDesignDay
8,37439071.60142874
2018,0.0
2,1, 8,21, 0,10,30.00,40.00,SummerDesignDay
8,37553223.204780646
2018,0.0
2,1, 8,21, 0,10,40.00,50.00,SummerDesignDay
8,39097820.82751908
2018,0.0
2,1, 8,21, 0,10,50.00,60.00,SummerDesignDay
8,37852132.05052372
2018,0.0
2,1, 8,21, 0,11, 0.00,10.00,SummerDesignDay
8,38001505.43106313
2018,0.0
2,1, 8,21, 0,11,10.00,20.00,SummerDesignDay
8,38130430.480567314
2018,0.0
2,1, 8,21, 0,11,20.00,30.00,SummerDesignDay
8,38261131.261494145
2018,0.0
2,1, 8,21, 0,11,30.00,40.00,SummerDesignDay
8,38369048.15067341
2018,0.0
2,1, 8,21, 0,11,40.00,50.00,SummerDesignDay
8,38484068.42496863
2018,0.0
2,1, 8,21, 0,11,50.00,60.00,SummerDesignDay
8,38595163.61379715
2018,0.0
2,1, 8,21, 0,12, 0.00,10.00,SummerDesignDay
8,38671422.835046425
2018,0.0
2,1, 8,21, 0,12,10.00,20.00,SummerDesignDay
8,38736284.25720902
2018,0.0
2,1, 8,21, 0,12,20.00,30.00,SummerDesignDay
8,38787539.26509743
2018,0.0
2,1, 8,21, 0,12,30.00,40.00,SummerDesignDay
8,38823735.6641247
2018,0.0
2,1, 8,21, 0,12,40.00,50.00,SummerDesignDay
8,38843609.936685346
2018,0.0
2,1, 8,21, 0,12,50.00,60.00,SummerDesignDay
8,38847121.322822064
2018,0.0
2,1, 8,21, 0,13, 0.00,10.00,SummerDesignDay
8,33837735.03988984
2018,0.0
2,1, 8,21, 0,13,10.00,20.00,SummerDesignDay
8,33797911.63042632
2018,0.0
2,1, 8,21, 0,13,20.00,30.00,SummerDesignDay
8,33846938.06935467
2018,0.0
2,1, 8,21, 0,13,30.00,40.00,SummerDesignDay
8,33793416.46186885
2018,0.0
2,1, 8,21, 0,13,40.00,50.00,SummerDesignDay
8,33742356.2234687
2018,0.0
2,1, 8,21, 0,13,50.00,60.00,SummerDesignDay
8,33801822.300329596
2018,0.0
2,1, 8,21, 0,14, 0.00,10.00,SummerDesignDay
8,38753772.86830325
2018,0.0
2,1, 8,21, 0,14,10.00,20.00,SummerDesignDay
8,38704031.13218646
2018,0.0
2,1, 8,21, 0,14,20.00,30.00,SummerDesignDay
8,38714648.86381965
2018,0.0
2,1, 8,21, 0,14,30.00,40.00,SummerDesignDay
8,38733489.6855875
2018,0.0
2,1, 8,21, 0,14,40.00,50.00,SummerDesignDay
8,38757553.278006636
2018,0.0
2,1, 8,21, 0,14,50.00,60.00,SummerDesignDay
8,38784084.877194524
2018,0.0
2,1, 8,21, 0,15, 0.00,10.00,SummerDesignDay
8,38783783.78395399
2018,0.0
2,1, 8,21, 0,15,10.00,20.00,SummerDesignDay
8,38781569.917073205
2018,0.0
2,1, 8,21, 0,15,20.00,30.00,SummerDesignDay
8,38775866.52702735
2018,0.0
2,1, 8,21, 0,15,30.00,40.00,SummerDesignDay
8,39997988.36315154
2018,0.0
2,1, 8,21, 0,15,40.00,50.00,SummerDesignDay
8,38771236.26908545
2018,0.0
2,1, 8,21, 0,15,50.00,60.00,SummerDesignDay
8,38717940.91300798
2018,0.0
2,1, 8,21, 0,16, 0.00,10.00,SummerDesignDay
8,38667447.38701076
2018,0.0
2,1, 8,21, 0,16,10.00,20.00,SummerDesignDay
8,38596190.12745163
2018,0.0
2,1, 8,21, 0,16,20.00,30.00,SummerDesignDay
8,38517789.12491791
2018,0.0
2,1, 8,21, 0,16,30.00,40.00,SummerDesignDay
8,38430748.15878016
2018,0.0
2,1, 8,21, 0,16,40.00,50.00,SummerDesignDay
8,38334234.95563056
2018,0.0
2,1, 8,21, 0,16,50.00,60.00,SummerDesignDay
8,38227473.476275876
2018,0.0
2,1, 8,21, 0,17, 0.00,10.00,SummerDesignDay
8,38101301.442618005
2018,0.0
2,1, 8,21, 0,17,10.00,20.00,SummerDesignDay
8,37968267.69723695
2018,0.0
2,1, 8,21, 0,17,20.00,30.00,SummerDesignDay
8,37825942.628998145
2018,0.0
2,1, 8,21, 0,17,30.00,40.00,SummerDesignDay
8,37674226.54856692
2018,0.0
2,1, 8,21, 0,17,40.00,50.00,SummerDesignDay
8,37561758.06755279
2018,0.0
2,1, 8,21, 0,17,50.00,60.00,SummerDesignDay
8,37391919.93929245
2018,0.0
2,1, 8,21, 0,18, 0.00,10.00,SummerDesignDay
8,32207630.119148307
2018,0.0
2,1, 8,21, 0,18,10.00,20.00,SummerDesignDay
8,32050464.012231946
2018,0.0
2,1, 8,21, 0,18,20.00,30.00,SummerDesignDay
8,31845588.60574426
2018,0.0
2,1, 8,21, 0,18,30.00,40.00,SummerDesignDay
8,31677848.421804417
2018,0.0
2,1, 8,21, 0,18,40.00,50.00,SummerDesignDay
8,31615018.990063127
2018,0.0
2,1, 8,21, 0,18,50.00,60.00,SummerDesignDay
8,31442278.425555527
2018,0.0
2,1, 8,21, 0,19, 0.00,10.00,SummerDesignDay
8,27073437.276288167
2018,0.0
2,1, 8,21, 0,19,10.00,20.00,SummerDesignDay
8,26951159.7772563
2018,0.0
2,1, 8,21, 0,19,20.00,30.00,SummerDesignDay
8,26797677.667112317
2018,0.0
2,1, 8,21, 0,19,30.00,40.00,SummerDesignDay
8,26702937.709028948
2018,0.0
2,1, 8,21, 0,19,40.00,50.00,SummerDesignDay
8,26612168.651141874
2018,0.0
2,1, 8,21, 0,19,50.00,60.00,SummerDesignDay
8,26541655.11163527
2018,0.0
2,1, 8,21, 0,20, 0.00,10.00,SummerDesignDay
8,26444708.069179337
2018,0.0
2,1, 8,21, 0,20,10.00,20.00,SummerDesignDay
8,26437279.25273926
2018,0.0
2,1, 8,21, 0,20,20.00,30.00,SummerDesignDay
8,26382884.502538867
2018,0.0
2,1, 8,21, 0,20,30.00,40.00,SummerDesignDay
8,27917331.79312884
2018,0.0
2,1, 8,21, 0,20,40.00,50.00,SummerDesignDay
8,26755534.51761542
2018,0.0
2,1, 8,21, 0,20,50.00,60.00,SummerDesignDay
8,26712073.673000477
2018,0.0
2,1, 8,21, 0,21, 0.00,10.00,SummerDesignDay
8,27404066.009406544
2018,0.0
2,1, 8,21, 0,21,10.00,20.00,SummerDesignDay
8,28311253.727253556
2018,0.0
2,1, 8,21, 0,21,20.00,30.00,SummerDesignDay
8,29178435.994209096
2018,0.0
2,1, 8,21, 0,21,30.00,40.00,SummerDesignDay
8,30138076.376416482
2018,0.0
2,1, 8,21, 0,21,40.00,50.00,SummerDesignDay
8,30103904.22383314
2018,0.0
2,1, 8,21, 0,21,50.00,60.00,SummerDesignDay
8,30071525.716537885
2018,0.0
2,1, 8,21, 0,22, 0.00,10.00,SummerDesignDay
8,30038518.815985803
2018,0.0
2,1, 8,21, 0,22,10.00,20.00,SummerDesignDay
8,30004776.608563673
2018,0.0
2,1, 8,21, 0,22,20.00,30.00,SummerDesignDay
8,29970882.800899643
2018,0.0
2,1, 8,21, 0,22,30.00,40.00,SummerDesignDay
8,29948288.375613615
2018,0.0
2,1, 8,21, 0,22,40.00,50.00,SummerDesignDay
8,29924906.5863871
2018,0.0
2,1, 8,21, 0,22,50.00,60.00,SummerDesignDay
8,29901615.905816182
2018,0.0
2,1, 8,21, 0,23, 0.00,10.00,SummerDesignDay
8,29879777.274251893
2018,0.0
2,1, 8,21, 0,23,10.00,20.00,SummerDesignDay
8,29857670.425314203
2018,0.0
2,1, 8,21, 0,23,20.00,30.00,SummerDesignDay
8,29835158.646003176
2018,0.0
2,1, 8,21, 0,23,30.00,40.00,SummerDesignDay
8,29811792.9288073
2018,0.0
2,1, 8,21, 0,23,40.00,50.00,SummerDesignDay
8,29788104.737135433
2018,0.0
2,1, 8,21, 0,23,50.00,60.00,SummerDesignDay
8,29764203.895392388
2018,0.0
2,1, 8,21, 0,24, 0.00,10.00,SummerDesignDay
8,29740184.045175124
2018,0.0
2,1, 8,21, 0,24,10.00,20.00,SummerDesignDay
8,29716120.942984514
2018,0.0
2,1, 8,21, 0,24,20.00,30.00,SummerDesignDay
8,29692076.678812154
2018,0.0
2,1, 8,21, 0,24,30.00,40.00,SummerDesignDay
8,29668103.32946059
2018,0.0
2,1, 8,21, 0,24,40.00,50.00,SummerDesignDay
8,29644246.877285548
2018,0.0
2,1, 8,21, 0,24,50.00,60.00,SummerDesignDay
8,29620551.545436054
2018,0.0
1,KODIAK ANN CLG .4% CONDNS WB=>MDB HVAC Sizing Pass 1,  57.75,-152.49,  -9.00,  34.00
2,1, 8,21, 0, 1, 0.00,10.00,SummerDesignDay
8,28924594.984269258
2018,0.0
2,1, 8,21, 0, 1,10.00,20.00,SummerDesignDay
8,28904406.235152826
2018,0.0
2,1, 8,21, 0, 1,20.00,30.00,SummerDesignDay
8,28884083.712521363
2018,0.0
2,1, 8,21, 0, 1,30.00,40.00,SummerDesignDay
8,28863658.891788296
2018,0.0
2,1, 8,21, 0, 1,40.00,50.00,SummerDesignDay
8,28852270.272518754
2018,0.0
2,1, 8,21, 0, 1,50.00,60.00,SummerDesignDay
8,28852270.272518754
2018,0.0
2,1, 8,21, 0, 2, 0.00,10.00,SummerDesignDay
8,28852270.272518754
2018,0.0
2,1, 8,21, 0, 2,10.00,20.00,SummerDesignDay
8,28852270.272518754
2018,0.0
2,1, 8,21, 0, 2,20.00,30.00,SummerDesignDay
8,28852270.272518754
2018,0.0
2,1, 8,21, 0, 2,30.00,40.00,SummerDesignDay
8,28852270.272518754
2018,0.0
2,1, 8,21, 0, 2,40.00,50.00,SummerDesignDay
8,28852270.272518754
2018,0.0
2,1, 8,21, 0, 2,50.00,60.00,SummerDesignDay
8,28852270.272518754
2018,0.0
2,1, 8,21, 0, 3, 0.00,10.00,SummerDesignDay
8,28852270.272518754
2018,0.0
2,1, 8,21, 0, 3,10.00,20.00,SummerDesignDay
8,28852270.272518754
2018,0.0
2,1, 8,21, 0, 3,20.00,30.00,SummerDesignDay
8,28852270.272518754
2018,0.0
2,1, 8,21, 0, 3,30.00,40.00,SummerDesignDay
8,28852270.272518754
2018,0.0
2,1, 8,21, 0, 3,40.00,50.00,SummerDesignDay
8,28852270.272518754
2018,0.0
2,1, 8,21, 0, 3,50.00,60.00,SummerDesignDay
8,28852270.272518754
2018,0.0
2,1, 8,21, 0, 4, 0.00,10.00,SummerDesignDay
8,28852270.272518754
2018,0.0
2,1, 8,21, 0, 4,10.00,20.00,SummerDesignDay
8,28852270.272518754
2018,0.0
2,1, 8,21, 0, 4,20.00,30.00,SummerDesignDay
8,28852270.272518754
2018,0.0
2,1, 8,21, 0, 4,30.00,40.00,SummerDesignDay
8,28852270.272518754
2018,0.0
2,1, 8,21, 0, 4,40.00,50.00,SummerDesignDay
8,28852270.272518754
2018,0.0
2,1, 8,21, 0, 4,50.00,60.00,SummerDesignDay
8,28852270.272518754
2018,0.0
2,1, 8,21, 0, 5, 0.00,10.00,SummerDesignDay
8,28852270.272518754
2018,0.0
2,1, 8,21, 0, 5,10.00,20.00,SummerDesignDay
8,28852270.272518754
2018,0.0
2,1, 8,21, 0, 5,20.00,30.00,SummerDesignDay
8,28852270.272518754
2018,0.0
2,1, 8,21, 0, 5,30.00,40.00,SummerDesignDay
8,28852270.272518754
2018,0.0
2,1, 8,21, 0, 5,40.00,50.00,SummerDesignDay
8,28852270.272518754
2018,0.0
2,1, 8,21, 0, 5,50.00,60.00,SummerDesignDay
8,30106986.69918409
2018,0.0
2,1, 8,21, 0, 6, 0.00,10.00,SummerDesignDay
8,28852270.272518754
2018,0.0
2,1, 8,21, 0, 6,10.00,20.00,SummerDesignDay
8,28852270.272518754
2018,0.0
2,1, 8,21, 0, 6,20.00,30.00,SummerDesignDay
8,28852270.272518754
2018,0.0
2,1, 8,21, 0, 6,30.00,40.00,SummerDesignDay
8,28852270.272518754
2018,0.0
2,1, 8,21, 0, 6,40.00,50.00,SummerDesignDay
8,28852270.272518754
2018,0.0
2,1, 8,21, 0, 6,50.00,60.00,SummerDesignDay
8,26437264.154116716
2018,0.0
2,1, 8,21, 0, 7, 0.00,10.00,SummerDesignDay
8,27828666.861270603
2018,0.0
2,1, 8,21, 0, 7,10.00,20.00,SummerDesignDay
8,26272902.17711716
2018,0.0
2,1, 8,21, 0, 7,20.00,30.00,SummerDesignDay
8,26139194.40457471
2018,0.0
2,1, 8,21, 0, 7,30.00,40.00,SummerDesignDay
8,25682648.39329515
2018,0.0
2,1, 8,21, 0, 7,40.00,50.00,SummerDesignDay
8,25496624.04415138
2018,0.0
2,1, 8,21, 0, 7,50.00,60.00,SummerDesignDay
8,25503556.09853047
2018,0.0
2,1, 8,21, 0, 8, 0.00,10.00,SummerDesignDay
8,28751569.152955856
2018,0.0
2,1, 8,21, 0, 8,10.00,20.00,SummerDesignDay
8,27769147.967429444
2018,0.0
2,1, 8,21, 0, 8,20.00,30.00,SummerDesignDay
8,27185351.329057414
2018,0.0
2,1, 8,21, 0, 8,30.00,40.00,SummerDesignDay
8,26840640.410438802
2018,0.0
2,1, 8,21, 0, 8,40.00,50.00,SummerDesignDay
8,26906097.922876228
2018,0.0
2,1, 8,21, 0, 8,50.00,60.00,SummerDesignDay
8,27512702.071284063
2018,0.0
2,1, 8,21, 0, 9, 0.00,10.00,SummerDesignDay
8,36094084.8104274
2018,0.0
2,1, 8,21, 0, 9,10.00,20.00,SummerDesignDay
8,35408137.3302533
2018,0.0
2,1, 8,21, 0, 9,20.00,30.00,SummerDesignDay
8,35723249.58323303
2018,0.0
2,1, 8,21, 0, 9,30.00,40.00,SummerDesignDay
8,35630297.366827495
2018,0.0
2,1, 8,21, 0, 9,40.00,50.00,SummerDesignDay
8,35779301.11314775
2018,0.0
2,1, 8,21, 0, 9,50.00,60.00,SummerDesignDay
8,35945088.44489137
2018,0.0
2,1, 8,21, 0,10, 0.00,10.00,SummerDesignDay
8,36103028.922474414
2018,0.0
2,1, 8,21, 0,10,10.00,20.00,SummerDesignDay
8,36201741.633744165
2018,0.0
2,1, 8,21, 0,10,20.00,30.00,SummerDesignDay
8,36343911.34585012
2018,0.0
2,1, 8,21, 0,10,30.00,40.00,SummerDesignDay
8,36472923.94092875
2018,0.0
2,1, 8,21, 0,10,40.00,50.00,SummerDesignDay
8,37769824.66319789
2018,0.0
2,1, 8,21, 0,10,50.00,60.00,SummerDesignDay
8,36552492.54689741
2018,0.0
2,1, 8,21, 0,11, 0.00,10.00,SummerDesignDay
8,36664524.78318135
2018,0.0
2,1, 8,21, 0,11,10.00,20.00,SummerDesignDay
8,36970944.3986037
2018,0.0
2,1, 8,21, 0,11,20.00,30.00,SummerDesignDay
8,37028393.97444147
2018,0.0
2,1, 8,21, 0,11,30.00,40.00,SummerDesignDay
8,37176872.89899102
2018,0.0
2,1, 8,21, 0,11,40.00,50.00,SummerDesignDay
8,37307792.15335021
2018,0.0
2,1, 8,21, 0,11,50.00,60.00,SummerDesignDay
8,37429849.358628735
2018,0.0
2,1, 8,21, 0,12, 0.00,10.00,SummerDesignDay
8,37515994.034201264
2018,0.0
2,1, 8,21, 0,12,10.00,20.00,SummerDesignDay
8,37588490.193673536
2018,0.0
2,1, 8,21, 0,12,20.00,30.00,SummerDesignDay
8,37645410.17075803
2018,0.0
2,1, 8,21, 0,12,30.00,40.00,SummerDesignDay
8,37685545.184869014
2018,0.0
2,1, 8,21, 0,12,40.00,50.00,SummerDesignDay
8,37707905.76663077
2018,0.0
2,1, 8,21, 0,12,50.00,60.00,SummerDesignDay
8,37712506.17614707
2018,0.0
2,1, 8,21, 0,13, 0.00,10.00,SummerDesignDay
8,32703703.40169294
2018,0.0
2,1, 8,21, 0,13,10.00,20.00,SummerDesignDay
8,32663844.37145319
2018,0.0
2,1, 8,21, 0,13,20.00,30.00,SummerDesignDay
8,32712593.817297272
2018,0.0
2,1, 8,21, 0,13,30.00,40.00,SummerDesignDay
8,32658187.51947897
2018,0.0
2,1, 8,21, 0,13,40.00,50.00,SummerDesignDay
8,32606198.196288947
2018,0.0
2,1, 8,21, 0,13,50.00,60.00,SummerDesignDay
8,32665338.868809022
2018,0.0
2,1, 8,21, 0,14, 0.00,10.00,SummerDesignDay
8,37619686.69571408
2018,0.0
2,1, 8,21, 0,14,10.00,20.00,SummerDesignDay
8,37573554.46908879
2018,0.0
2,1, 8,21, 0,14,20.00,30.00,SummerDesignDay
8,37586103.298708335
2018,0.0
2,1, 8,21, 0,14,30.00,40.00,SummerDesignDay
8,37606368.04671602
2018,0.0
2,1, 8,21, 0,14,40.00,50.00,SummerDesignDay
8,37630763.79794455
2018,0.0
2,1, 8,21, 0,14,50.00,60.00,SummerDesignDay
8,37657205.03946278
2018,0.0
2,1, 8,21, 0,15, 0.00,10.00,SummerDesignDay
8,37658842.95703932
2018,0.0
2,1, 8,21, 0,15,10.00,20.00,SummerDesignDay
8,37658544.204849385
2018,0.0
2,1, 8,21, 0,15,20.00,30.00,SummerDesignDay
8,37653819.66084146
2018,0.0
2,1, 8,21, 0,15,30.00,40.00,SummerDesignDay
8,38899524.199643284
2018,0.0
2,1, 8,21, 0,15,40.00,50.00,SummerDesignDay
8,37629918.923698224
2018,0.0
2,1, 8,21, 0,15,50.00,60.00,SummerDesignDay
8,37608601.936682425
2018,0.0
2,1, 8,21, 0,16, 0.00,10.00,SummerDesignDay
8,37551287.851726174
2018,0.0
2,1, 8,21, 0,16,10.00,20.00,SummerDesignDay
8,37485528.90832878
2018,0.0
2,1, 8,21, 0,16,20.00,30.00,SummerDesignDay
8,37411159.509045966
2018,0.0
2,1, 8,21, 0,16,30.00,40.00,SummerDesignDay
8,37327941.21690415
2018,0.0
2,1, 8,21, 0,16,40.00,50.00,SummerDesignDay
8,37235695.44116066
2018,0.0
2,1, 8,21, 0,16,50.00,60.00,SummerDesignDay
8,37132732.209086105
2018,0.0
2,1, 8,21, 0,17, 0.00,10.00,SummerDesignDay
8,37010764.689830095
2018,0.0
2,1, 8,21, 0,17,10.00,20.00,SummerDesignDay
8,36879070.116185546
2018,0.0
2,1, 8,21, 0,17,20.00,30.00,SummerDesignDay
8,36737673.646731265
2018,0.0
2,1, 8,21, 0,17,30.00,40.00,SummerDesignDay
8,36586871.81520396
2018,0.0
2,1, 8,21, 0,17,40.00,50.00,SummerDesignDay
8,36475262.679246314
2018,0.0
2,1, 8,21, 0,17,50.00,60.00,SummerDesignDay
8,36156306.206473194
2018,0.0
2,1, 8,21, 0,18, 0.00,10.00,SummerDesignDay
8,31294854.433865037
2018,0.0
2,1, 8,21, 0,18,10.00,20.00,SummerDesignDay
8,30894957.880585033
2018,0.0
2,1, 8,21, 0,18,20.00,30.00,SummerDesignDay
8,30779674.09413129
2018,0.0
2,1, 8,21, 0,18,30.00,40.00,SummerDesignDay
8,30600113.091184758
2018,0.0
2,1, 8,21, 0,18,40.00,50.00,SummerDesignDay
8,30559843.581257407
2018,0.0
2,1, 8,21, 0,18,50.00,60.00,SummerDesignDay
8,30426287.3454591
2018,0.0
2,1, 8,21, 0,19, 0.00,10.00,SummerDesignDay
8,26527386.03203563
2018,0.0
2,1, 8,21, 0,19,10.00,20.00,SummerDesignDay
8,26452809.915443704
2018,0.0
2,1, 8,21, 0,19,20.00,30.00,SummerDesignDay
8,26341554.008305993
2018,0.0
2,1, 8,21, 0,19,30.00,40.00,SummerDesignDay
8,26285928.87401072
2018,0.0
2,1, 8,21, 0,19,40.00,50.00,SummerDesignDay
8,26200869.205214594
2018,0.0
2,1, 8,21, 0,19,50.00,60.00,SummerDesignDay
8,26121934.62156868
2018,0.0
2,1, 8,21, 0,20, 0.00,10.00,SummerDesignDay
8,26026269.592010822
2018,0.0
2,1, 8,21, 0,20,10.00,20.00,SummerDesignDay
8,26022694.462253254
2018,0.0
2,1, 8,21, 0,20,20.00,30.00,SummerDesignDay
8,25971758.387864575
2018,0.0
2,1, 8,21, 0,20,30.00,40.00,SummerDesignDay
8,27510291.975144263
2018,0.0
2,1, 8,21, 0,20,40.00,50.00,SummerDesignDay
8,26344635.961946107
2018,0.0
2,1, 8,21, 0,20,50.00,60.00,SummerDesignDay
8,26297631.756909452
2018,0.0
2,1, 8,21, 0,21, 0.00,10.00,SummerDesignDay
8,26992504.24708439
2018,0.0
2,1, 8,21, 0,21,10.00,20.00,SummerDesignDay
8,27880094.221864257
2018,0.0
2,1, 8,21, 0,21,20.00,30.00,SummerDesignDay
8,28577769.553920574
2018,0.0
2,1, 8,21, 0,21,30.00,40.00,SummerDesignDay
8,29560270.509208895
2018,0.0
2,1, 8,21, 0,21,40.00,50.00,SummerDesignDay
8,29537593.714001823
2018,0.0
2,1, 8,21, 0,21,50.00,60.00,SummerDesignDay
8,29515382.485285915
2018,0.0
2,1, 8,21, 0,22, 0.00,10.00,SummerDesignDay
8,29493767.142121818
2018,0.0
2,1, 8,21, 0,22,10.00,20.00,SummerDesignDay
8,29472643.99566721
2018,0.0
2,1, 8,21, 0,22,20.00,30.00,SummerDesignDay
8,29451647.02550522
2018,0.0
2,1, 8,21, 0,22,30.00,40.00,SummerDesignDay
8,29430766.99627694
2018,0.0
2,1, 8,21, 0,22,40.00,50.00,SummerDesignDay
8,29408642.454266954
2018,0.0
2,1, 8,21, 0,22,50.00,60.00,SummerDesignDay
8,29386679.790163815
2018,0.0
2,1, 8,21, 0,23, 0.00,10.00,SummerDesignDay
8,29366372.094292585
2018,0.0
2,1, 8,21, 0,23,10.00,20.00,SummerDesignDay
8,29346027.205695774
2018,0.0
2,1, 8,21, 0,23,20.00,30.00,SummerDesignDay
8,29325652.16457347
2018,0.0
2,1, 8,21, 0,23,30.00,40.00,SummerDesignDay
8,29305279.063897062
2018,0.0
2,1, 8,21, 0,23,40.00,50.00,SummerDesignDay
8,29284947.28871357
2018,0.0
2,1, 8,21, 0,23,50.00,60.00,SummerDesignDay
8,29264702.178213026
2018,0.0
2,1, 8,21, 0,24, 0.00,10.00,SummerDesignDay
8,29244599.539562568
2018,0.0
2,1, 8,21, 0,24,10.00,20.00,SummerDesignDay
8,29224721.785884347
2018,0.0
2,1, 8,21, 0,24,20.00,30.00,SummerDesignDay
8,29205235.507335573
2018,0.0
2,1, 8,21, 0,24,30.00,40.00,SummerDesignDay
8,29186745.53866919
2018,0.0
2,1, 8,21, 0,24,40.00,50.00,SummerDesignDay
8,29166409.15589026
2018,0.0
2,1, 8,21, 0,24,50.00,60.00,SummerDesignDay
8,29145870.067783877
2018,0.0
1,KODIAK ANN HTG 99.6% CONDNS DB HVAC Sizing Pass 1,  57.75,-152.49,  -9.00,  34.00
2,1, 1,21, 0, 1, 0.00,10.00,WinterDesignDay
8,7859246.809336941
2018,137132948.21133998
2,1, 1,21, 0, 1,10.00,20.00,WinterDesignDay
8,7858794.157400165
2018,136943252.4032856
2,1, 1,21, 0, 1,20.00,30.00,WinterDesignDay
8,7859432.21292853
2018,137205544.77512816
2,1, 1,21, 0, 1,30.00,40.00,WinterDesignDay
8,7859329.9914831575
2018,137113010.9527877
2,1, 1,21, 0, 1,40.00,50.00,WinterDesignDay
8,7859492.355809368
2018,137178461.4569072
2,1, 1,21, 0, 1,50.00,60.00,WinterDesignDay
8,7859841.4536678735
2018,137278415.6961741
2,1, 1,21, 0, 2, 0.00,10.00,WinterDesignDay
8,7859442.801817487
2018,137120240.16582793
2,1, 1,21, 0, 2,10.00,20.00,WinterDesignDay
8,7860122.061422611
2018,137387181.75205272
2,1, 1,21, 0, 2,20.00,30.00,WinterDesignDay
8,7859767.43365903
2018,137207393.26751503
2,1, 1,21, 0, 2,30.00,40.00,WinterDesignDay
8,7860180.146249849
2018,137381804.53259683
2,1, 1,21, 0, 2,40.00,50.00,WinterDesignDay
8,7860452.224581101
2018,137428627.27951777
2,1, 1,21, 0, 2,50.00,60.00,WinterDesignDay
8,7860154.229501045
2018,137305459.26682648
2,1, 1,21, 0, 3, 0.00,10.00,WinterDesignDay
8,7860642.025901343
2018,137499269.32336402
2,1, 1,21, 0, 3,10.00,20.00,WinterDesignDay
8,7860712.282562403
2018,137472512.8192112
2,1, 1,21, 0, 3,20.00,30.00,WinterDesignDay
8,7860411.281559778
2018,137373199.62302458
2,1, 1,21, 0, 3,30.00,40.00,WinterDesignDay
8,7861228.318129359
2018,137672269.44792154
2,1, 1,21, 0, 3,40.00,50.00,WinterDesignDay
8,7860854.727080708
2018,137466812.85718566
2,1, 1,21, 0, 3,50.00,60.00,WinterDesignDay
8,7861007.743238578
2018,137557178.202702
2,1, 1,21, 0, 4, 0.00,10.00,WinterDesignDay
8,7861293.483248067
2018,137641322.98991945
2,1, 1,21, 0, 4,10.00,20.00,WinterDesignDay
8,7861288.035374255
2018,137609959.78751528
2,1, 1,21, 0, 4,20.00,30.00,WinterDesignDay
8,7861376.844623012
2018,137641868.67280674
2,1, 1,21, 0, 4,30.00,40.00,WinterDesignDay
8,7861539.3824257925
2018,137690035.85440892
2,1, 1,21, 0, 4,40.00,50.00,WinterDesignDay
8,7861458.238223605
2018,137651627.63960192
2,1, 1,21, 0, 4,50.00,60.00,WinterDesignDay
8,7861693.423617027
2018,137740894.02311602
2,1, 1,21, 0, 5, 0.00,10.00,WinterDesignDay
8,7861781.360413013
2018,137748454.7709828
2,1, 1,21, 0, 5,10.00,20.00,WinterDesignDay
8,7861820.730230692
2018,137754282.38895625
2,1, 1,21, 0, 5,20.00,30.00,WinterDesignDay
8,7861933.49655319
2018,137790789.66000685
2,1, 1,21, 0, 5,30.00,40.00,WinterDesignDay
8,7861898.240559026
2018,137773520.95410547
2,1, 1,21, 0, 5,40.00,50.00,WinterDesignDay
8,7862291.504218963
2018,137905888.6566991
2,1, 1,21, 0, 5,50.00,60.00,WinterDesignDay
8,9117354.730588451
2018,137969367.51866427
2,1, 1,21, 0, 6, 0.00,10.00,WinterDesignDay
8,7861790.458955774
2018,137665308.82385054
2,1, 1,21, 0, 6,10.00,20.00,WinterDesignDay
8,7862982.648843063
2018,138142147.3462764
2,1, 1,21, 0, 6,20.00,30.00,WinterDesignDay
8,7862406.550224169
2018,137834664.94636628
2,1, 1,21, 0, 6,30.00,40.00,WinterDesignDay
8,7862611.1190220835
2018,137960003.02674022
2,1, 1,21, 0, 6,40.00,50.00,WinterDesignDay
8,7862983.256554768
2018,138063861.60730124
2,1, 1,21, 0, 6,50.00,60.00,WinterDesignDay
8,7862759.165182845
2018,137952458.8817773
2,1, 1,21, 0, 7, 0.00,10.00,WinterDesignDay
8,17661829.20927488
2018,155322700.0119577
2,1, 1,21, 0, 7,10.00,20.00,WinterDesignDay
8,8042539.9462621
2018,131402645.3211263
2,1, 1,21, 0, 7,20.00,30.00,WinterDesignDay
8,8076747.171184377
2018,150180473.05775848
2,1, 1,21, 0, 7,30.00,40.00,WinterDesignDay
8,8064802.715117156
2018,145849885.27812988
2,1, 1,21, 0, 7,40.00,50.00,WinterDesignDay
8,8061772.924127525
2018,145135366.49685657
2,1, 1,21, 0, 7,50.00,60.00,WinterDesignDay
8,8059319.466903727
2018,144458039.27395093
2,1, 1,21, 0, 8, 0.00,10.00,WinterDesignDay
8,17948514.205775335
2018,164436434.8135785
2,1, 1,21, 0, 8,10.00,20.00,WinterDesignDay
8,8052169.800161371
2018,136357874.95054126
2,1, 1,21, 0, 8,20.00,30.00,WinterDesignDay
8,8096465.3725113245
2018,158548564.00729778
2,1, 1,21, 0, 8,30.00,40.00,WinterDesignDay
8,8079846.055869584
2018,151121215.20572102
2,1, 1,21, 0, 8,40.00,50.00,WinterDesignDay
8,8074360.799895844
2018,150053748.4366266
2,1, 1,21, 0, 8,50.00,60.00,WinterDesignDay
8,8071623.026120965
2018,149518007.82111967
2,1, 1,21, 0, 9, 0.00,10.00,WinterDesignDay
8,13604443.262999997
2018,164088835.6324392
2,1, 1,21, 0, 9,10.00,20.00,WinterDesignDay
8,13016382.977504877
2018,136682547.9022802
2,1, 1,21, 0, 9,20.00,30.00,WinterDesignDay
8,13041412.56224797
2018,152025190.4613254
2,1, 1,21, 0, 9,30.00,40.00,WinterDesignDay
8,13030657.918108033
2018,147267796.46908998
2,1, 1,21, 0, 9,40.00,50.00,WinterDesignDay
8,13027432.686215995
2018,146720454.67958012
2,1, 1,21, 0, 9,50.00,60.00,WinterDesignDay
8,13025280.408925593
2018,146194030.41113168
2,1, 1,21, 0,10, 0.00,10.00,WinterDesignDay
8,13023056.40284869
2018,145527135.2841464
2,1, 1,21, 0,10,10.00,20.00,WinterDesignDay
8,13021273.832823368
2018,145029377.22965142
2,1, 1,21, 0,10,20.00,30.00,WinterDesignDay
8,13020044.559076399
2018,144696471.80824065
2,1, 1,21, 0,10,30.00,40.00,WinterDesignDay
8,13018763.091752782
2018,144303366.17741704
2,1, 1,21, 0,10,40.00,50.00,WinterDesignDay
8,13725319.058452418
2018,144033378.0156215
2,1, 1,21, 0,10,50.00,60.00,WinterDesignDay
8,12469676.587046059
2018,143756544.57061645
2,1, 1,21, 0,11, 0.00,10.00,WinterDesignDay
8,12468998.404516887
2018,143568371.93667024
2,1, 1,21, 0,11,10.00,20.00,WinterDesignDay
8,12468264.029253215
2018,143343815.72428283
2,1, 1,21, 0,11,20.00,30.00,WinterDesignDay
8,12467654.821750883
2018,143173155.54568788
2,1, 1,21, 0,11,30.00,40.00,WinterDesignDay
8,12467416.437864032
2018,143123238.11513072
2,1, 1,21, 0,11,40.00,50.00,WinterDesignDay
8,12466760.03594033
2018,142895551.02065736
2,1, 1,21, 0,11,50.00,60.00,WinterDesignDay
8,12466708.826338662
2018,142913739.5461424
2,1, 1,21, 0,12, 0.00,10.00,WinterDesignDay
8,12466125.690343078
2018,142695725.2875744
2,1, 1,21, 0,12,10.00,20.00,WinterDesignDay
8,12465913.008292187
2018,142661260.57268953
2,1, 1,21, 0,12,20.00,30.00,WinterDesignDay
8,12465718.613251496
2018,142598939.17511547
2,1, 1,21, 0,12,30.00,40.00,WinterDesignDay
8,12465424.820294483
2018,142496513.01085737
2,1, 1,21, 0,12,40.00,50.00,WinterDesignDay
8,12465156.782413308
2018,142419634.85618138
2,1, 1,21, 0,12,50.00,60.00,WinterDesignDay
8,12465133.209156461
2018,142425079.2560122
2,1, 1,21, 0,13, 0.00,10.00,WinterDesignDay
8,7508579.978383608
2018,145313749.5518871
2,1, 1,21, 0,13,10.00,20.00,WinterDesignDay
8,7509156.774044504
2018,145494181.36115256
2,1, 1,21, 0,13,20.00,30.00,WinterDesignDay
8,7509210.895120402
2018,145467583.16041178
2,1, 1,21, 0,13,30.00,40.00,WinterDesignDay
8,7509594.023225329
2018,145591076.75273588
2,1, 1,21, 0,13,40.00,50.00,WinterDesignDay
8,7509872.833677955
2018,145641166.47847563
2,1, 1,21, 0,13,50.00,60.00,WinterDesignDay
8,7509859.313129229
2018,145603693.82297778
2,1, 1,21, 0,14, 0.00,10.00,WinterDesignDay
8,12466058.154175663
2018,142599649.487856
2,1, 1,21, 0,14,10.00,20.00,WinterDesignDay
8,12465315.70984411
2018,142388383.24313042
2,1, 1,21, 0,14,20.00,30.00,WinterDesignDay
8,12465482.503123645
2018,142485546.59743047
2,1, 1,21, 0,14,30.00,40.00,WinterDesignDay
8,12464710.830544004
2018,142180458.262139
2,1, 1,21, 0,14,40.00,50.00,WinterDesignDay
8,12464706.876598462
2018,142234099.38100514
2,1, 1,21, 0,14,50.00,60.00,WinterDesignDay
8,12464434.4214237
2018,142120688.7632416
2,1, 1,21, 0,15, 0.00,10.00,WinterDesignDay
8,12464238.574611187
2018,142064377.02046567
2,1, 1,21, 0,15,10.00,20.00,WinterDesignDay
8,12463825.664936189
2018,141929807.57095617
2,1, 1,21, 0,15,20.00,30.00,WinterDesignDay
8,12463839.708887119
2018,141958901.3388795
2,1, 1,21, 0,15,30.00,40.00,WinterDesignDay
8,13718342.328512818
2018,141880576.62908944
2,1, 1,21, 0,15,40.00,50.00,WinterDesignDay
8,12463556.486989591