Program Version,EnergyPlus, Version 23.1.0-87ed9199d4, YMD=2023.06.21 09:17
1,5,Environment Title[],Latitude[deg],Longitude[deg],Time Zone[],Elevation[m]
2,8,Day of Simulation[],Month[],Day of Month[],DST Indicator[1=yes 0=no],Hour[],StartMinute[],EndMinute[],DayType
3,5,Cumulative Day of Simulation[],Month[],Day of Month[],DST Indicator[1=yes 0=no],DayType  ! When Daily Report Variables Requested
4,2,Cumulative Days of Simulation[],Month[]  ! When Monthly Report Variables Requested
5,1,Cumulative Days of Simulation[] ! When Run Period Report Variables Requested
6,1,Calendar Year of Simulation[] ! When Annual Report Variables Requested
8,1,Electricity:Facility [J] !TimeStep
596,1,NaturalGas:Facility [J] !TimeStep
End of Data Dictionary
1,RUN PERIOD 1,  57.75,-152.50,  -9.00,   5.00
2,1, 1, 1, 0, 1, 0.00,60.00,Sunday
8,38298146.77036475
596,8469337.68485408
2,1, 1, 1, 0, 2, 0.00,60.00,Sunday
8,38347086.0462405
596,10919195.994989863
2,1, 1, 1, 0, 3, 0.00,60.00,Sunday
8,38347442.46423367
596,11592927.882566856
2,1, 1, 1, 0, 4, 0.00,60.00,Sunday
8,39516465.08636844
596,8195780.620682282
2,1, 1, 1, 0, 5, 0.00,60.00,Sunday
8,38234602.907392584
596,7328796.928217499
2,1, 1, 1, 0, 6, 0.00,60.00,Sunday
8,38227299.96081503
596,7052823.489193909
2,1, 1, 1, 0, 7, 0.00,60.00,Sunday
8,40436652.790860616
596,33159442.981922306
2,1, 1, 1, 0, 8, 0.00,60.00,Sunday
8,39168567.51353577
596,32814351.20196004
2,1, 1, 1, 0, 9, 0.00,60.00,Sunday
8,39168394.8535058
596,32807826.49556271
2,1, 1, 1, 0,10, 0.00,60.00,Sunday
8,40338669.857019715
596,28340916.095246293
2,1, 1, 1, 0,11, 0.00,60.00,Sunday
8,38469469.74635153
596,24022479.067882784
2,1, 1, 1, 0,12, 0.00,60.00,Sunday
8,38415420.840304926
596,22779931.08970454
2,1, 1, 1, 0,13, 0.00,60.00,Sunday
8,39655708.91667264
596,22081906.7511825
2,1, 1, 1, 0,14, 0.00,60.00,Sunday
8,38394234.16942236
596,21979301.047730837
2,1, 1, 1, 0,15, 0.00,60.00,Sunday
8,38424942.080048114
596,23139732.33537826
2,1, 1, 1, 0,16, 0.00,60.00,Sunday
8,39710164.90161138
596,24141784.057727385
2,1, 1, 1, 0,17, 0.00,60.00,Sunday
8,38976877.67126316
596,25570520.99780448
2,1, 1, 1, 0,18, 0.00,60.00,Sunday
8,38975776.67514358
596,25528915.095002715
2,1, 1, 1, 0,19, 0.00,60.00,Sunday
8,39592530.329306595
596,279348.99734199996
2,1, 1, 1, 0,20, 0.00,60.00,Sunday
8,38333580.11604396
596,320751.0388986288
2,1, 1, 1, 0,21, 0.00,60.00,Sunday
8,38333580.11604396
596,1260739.083908506
2,1, 1, 1, 0,22, 0.00,60.00,Sunday
8,38363934.711852044
596,2407818.8422442824
2,1, 1, 1, 0,23, 0.00,60.00,Sunday
8,39678883.41889737
596,4524851.22458847
2,1, 1, 1, 0,24, 0.00,60.00,Sunday
8,38453308.59897077
596,5785197.92137524
2,2, 1, 2, 0, 1, 0.00,60.00,Monday
8,38213198.520138815
596,6514041.263750428
2,2, 1, 2, 0, 2, 0.00,60.00,Monday
8,39488196.69750222
596,7123385.94284405
2,2, 1, 2, 0, 3, 0.00,60.00,Monday
8,38260569.79531516
596,8304169.889574037
2,2, 1, 2, 0, 4, 0.00,60.00,Monday
8,38256265.072579235
596,8141497.3128461605
2,2, 1, 2, 0, 5, 0.00,60.00,Monday
8,39525773.86827431
596,8545419.89425897
2,2, 1, 2, 0, 6, 0.00,60.00,Monday
8,38276210.50492817
596,8895221.785521772
2,2, 1, 2, 0, 7, 0.00,60.00,Monday
8,39219340.079339065
596,34727114.04551683
2,2, 1, 2, 0, 8, 0.00,60.00,Monday
8,40505444.992490806
596,35760214.26781111
2,2, 1, 2, 0, 9, 0.00,60.00,Monday
8,39230858.21498902
596,35162376.64434595
2,2, 1, 2, 0,10, 0.00,60.00,Monday
8,39172109.823710226
596,32942314.453540523
2,2, 1, 2, 0,11, 0.00,60.00,Monday
8,39783869.91193607
596,26920885.409174412
2,2, 1, 2, 0,12, 0.00,60.00,Monday
8,38462861.694408745
596,24566790.78912946
2,2, 1, 2, 0,13, 0.00,60.00,Monday
8,38446478.660604835
596,23947686.961313397
2,2, 1, 2, 0,14, 0.00,60.00,Monday
8,39696101.4214186
596,23606197.202146105
2,2, 1, 2, 0,15, 0.00,60.00,Monday
8,38471206.8798456
596,24882149.733610302
2,2, 1, 2, 0,16, 0.00,60.00,Monday
8,38555559.523198664
596,28069779.38824953
2,2, 1, 2, 0,17, 0.00,60.00,Monday
8,39073183.42236545
596,29203952.287064224
2,2, 1, 2, 0,18, 0.00,60.00,Monday
8,40354039.029632516
596,30032364.99122168
2,2, 1, 2, 0,19, 0.00,60.00,Monday
8,38333736.198929705
596,1260739.083908506
2,2, 1, 2, 0,20, 0.00,60.00,Monday
8,38402563.42200162
596,3861673.5489047114
2,2, 1, 2, 0,21, 0.00,60.00,Monday
8,39769385.768653445
596,7940729.914318739
2,2, 1, 2, 0,22, 0.00,60.00,Monday
8,40500558.79728082
596,7866672.274160803
2,2, 1, 2, 0,23, 0.00,60.00,Monday
8,40500558.79728082
596,9650872.430109238
2,2, 1, 2, 0,24, 0.00,60.00,Monday
8,41759385.729580656
596,9725288.237135986
2,3, 1, 3, 0, 1, 0.00,60.00,Tuesday
8,38413396.32426532
596,14079381.623699559
2,3, 1, 3, 0, 2, 0.00,60.00,Tuesday
8,38442290.65623068
596,15171278.993628409
2,3, 1, 3, 0, 3, 0.00,60.00,Tuesday
8,39733909.80725914
596,16412494.605246339
2,3, 1, 3, 0, 4, 0.00,60.00,Tuesday
8,38455993.1464006
596,15689086.880515935
2,3, 1, 3, 0, 5, 0.00,60.00,Tuesday
8,38465321.93618507
596,16041615.571696598
2,3, 1, 3, 0, 6, 0.00,60.00,Tuesday
8,39696805.27826002
596,15012361.150923342
2,3, 1, 3, 0, 7, 0.00,60.00,Tuesday
8,39461696.96536372
596,43885617.75315605
2,3, 1, 3, 0, 8, 0.00,60.00,Tuesday
8,39430542.50710169
596,42708311.730692886
2,3, 1, 3, 0, 9, 0.00,60.00,Tuesday
8,40703560.336300574
596,43250642.9397507
2,3, 1, 3, 0,10, 0.00,60.00,Tuesday
8,39387062.32739168
596,41065224.98529502
2,3, 1, 3, 0,11, 0.00,60.00,Tuesday
8,38799191.82258649
596,37276480.109008536
2,3, 1, 3, 0,12, 0.00,60.00,Tuesday
8,38699789.10931855
596,33520118.43533498
2,3, 1, 3, 0,13, 0.00,60.00,Tuesday
8,39908427.59868442
596,31619234.577370714
2,3, 1, 3, 0,14, 0.00,60.00,Tuesday
8,38600612.34311085
596,29772295.14909091
2,3, 1, 3, 0,15, 0.00,60.00,Tuesday
8,38615719.72622538
596,30343192.995389752
2,3, 1, 3, 0,16, 0.00,60.00,Tuesday
8,39895488.26982135
596,31132281.45715863
2,3, 1, 3, 0,17, 0.00,60.00,Tuesday
8,39131994.54371376
596,31426385.005002975
2,3, 1, 3, 0,18, 0.00,60.00,Tuesday
8,39125361.98253161
596,31175744.979154
2,3, 1, 3, 0,19, 0.00,60.00,Tuesday
8,39592695.66472014
596,1260739.0839085067
2,3, 1, 3, 0,20, 0.00,60.00,Tuesday
8,38366952.60744814
596,2515964.819642636
2,3, 1, 3, 0,21, 0.00,60.00,Tuesday
8,38463693.144155875
596,6171724.631751739
2,3, 1, 3, 0,22, 0.00,60.00,Tuesday
8,41759339.335207924
596,5342949.177767728
2,3, 1, 3, 0,23, 0.00,60.00,Tuesday
8,40500558.79728082
596,7086803.0436561955
2,3, 1, 3, 0,24, 0.00,60.00,Tuesday
8,40500558.79728082
596,9067862.54981306
2,4, 1, 4, 0, 1, 0.00,60.00,Wednesday
8,39637239.45755272
596,12761142.075514348
2,4, 1, 4, 0, 2, 0.00,60.00,Wednesday
8,38375184.766262025
596,12635392.548793336
2,4, 1, 4, 0, 3, 0.00,60.00,Wednesday
8,38407292.70146215
596,13848729.823415127
2,4, 1, 4, 0, 4, 0.00,60.00,Wednesday
8,39676434.246840745
596,14244310.285853058
2,4, 1, 4, 0, 5, 0.00,60.00,Wednesday
8,38429384.51097142
596,14683564.445273178
2,4, 1, 4, 0, 6, 0.00,60.00,Wednesday
8,38437664.628184296
596,14996464.505336396
2,4, 1, 4, 0, 7, 0.00,60.00,Wednesday
8,39423552.329759076
596,42444157.63068152
2,4, 1, 4, 0, 8, 0.00,60.00,Wednesday
8,40674821.831006184
596,42154006.68401398
2,4, 1, 4, 0, 9, 0.00,60.00,Wednesday
8,39388118.64788078
596,41105142.626070805
2,4, 1, 4, 0,10, 0.00,60.00,Wednesday
8,39292172.079759225
596,37479386.35279081
2,4, 1, 4, 0,11, 0.00,60.00,Wednesday
8,39936700.353849106
596,32689393.773325138
2,4, 1, 4, 0,12, 0.00,60.00,Wednesday
8,38578531.69661553
596,28937882.370021258
2,4, 1, 4, 0,13, 0.00,60.00,Wednesday
8,38547803.15877588
596,27776671.593835045
2,4, 1, 4, 0,14, 0.00,60.00,Wednesday
8,39798032.79599658
596,27451257.20641596
2,4, 1, 4, 0,15, 0.00,60.00,Wednesday
8,38591130.396020964
596,29413978.74635602
2,4, 1, 4, 0,16, 0.00,60.00,Wednesday
8,38628345.49657271
596,30820312.364409972
2,4, 1, 4, 0,17, 0.00,60.00,Wednesday
8,40371163.37757851
596,30685009.49277664
2,4, 1, 4, 0,18, 0.00,60.00,Wednesday
8,39120992.48068146
596,31010624.443271756
2,4, 1, 4, 0,19, 0.00,60.00,Wednesday
8,38333736.198929705
596,1260739.0839085067
2,4, 1, 4, 0,20, 0.00,60.00,Wednesday
8,39592666.46663206
596,1260739.0839085062
2,4, 1, 4, 0,21, 0.00,60.00,Wednesday
8,38374510.43405116
596,2801570.0033901026
2,4, 1, 4, 0,22, 0.00,60.00,Wednesday
8,40500558.79728082
596,2622976.994043149
2,4, 1, 4, 0,23, 0.00,60.00,Wednesday
8,41759239.20471894
596,3862755.772141087
2,4, 1, 4, 0,24, 0.00,60.00,Wednesday
8,40500558.79728082
596,5321221.870407425
2,5, 1, 5, 0, 1, 0.00,60.00,Thursday
8,38298434.972864345
596,9735069.48010314
2,5, 1, 5, 0, 2, 0.00,60.00,Thursday
8,38329159.42516292
596,10896125.866440179
2,5, 1, 5, 0, 3, 0.00,60.00,Thursday
8,39632094.910412975
596,12558137.767150056
2,5, 1, 5, 0, 4, 0.00,60.00,Thursday
8,38400830.45028765
596,13604525.698200624
2,5, 1, 5, 0, 5, 0.00,60.00,Thursday
8,38426470.86906961
596,14573459.877591632
2,5, 1, 5, 0, 6, 0.00,60.00,Thursday
8,39732684.84399971
596,16361378.584768549
2,5, 1, 5, 0, 7, 0.00,60.00,Thursday
8,39512575.18740692
596,45808271.54221879
2,5, 1, 5, 0, 8, 0.00,60.00,Thursday
8,39530890.85582382
596,46500408.33212225
2,5, 1, 5, 0, 9, 0.00,60.00,Thursday
8,40782656.20795099
596,46232768.6464899
2,5, 1, 5, 0,10, 0.00,60.00,Thursday
8,39449304.77226943
596,43417325.111418195
2,5, 1, 5, 0,11, 0.00,60.00,Thursday
8,38844278.96922943
596,38980293.05391593
2,5, 1, 5, 0,12, 0.00,60.00,Thursday
8,40036488.7183255
596,36464106.123436004
2,5, 1, 5, 0,13, 0.00,60.00,Thursday
8,38767852.07594499
596,36092172.16331465
2,5, 1, 5, 0,14, 0.00,60.00,Thursday
8,38778792.69278924
596,36505610.71492952
2,5, 1, 5, 0,15, 0.00,60.00,Thursday
8,40046377.02570735
596,36839799.56127677
2,5, 1, 5, 0,16, 0.00,60.00,Thursday
8,38843796.05048277
596,38962043.87930288
2,5, 1, 5, 0,17, 0.00,60.00,Thursday
8,39378362.21928838
596,40736453.751979046
2,5, 1, 5, 0,18, 0.00,60.00,Thursday
8,40640721.107607074
596,40875199.52879473
2,5, 1, 5, 0,19, 0.00,60.00,Thursday
8,38407491.19956016
596,4047890.948296858
2,5, 1, 5, 0,20, 0.00,60.00,Thursday
8,38651891.76953717
596,13283624.097863413
2,5, 1, 5, 0,21, 0.00,60.00,Thursday
8,38728231.52056609
596,16168451.941242678
2,5, 1, 5, 0,22, 0.00,60.00,Thursday
8,41759520.08407817
596,15336412.329966078
2,5, 1, 5, 0,23, 0.00,60.00,Thursday
8,40500558.79728082
596,16184945.288398117
2,5, 1, 5, 0,24, 0.00,60.00,Thursday
8,40500558.79728082
596,16958301.032899875
2,6, 1, 6, 0, 1, 0.00,60.00,Friday
8,39820111.0133009
596,19664897.940081548
2,6, 1, 6, 0, 2, 0.00,60.00,Friday
8,38591404.035189986
596,20806173.287155937
2,6, 1, 6, 0, 3, 0.00,60.00,Friday
8,38589430.42528805
596,20731591.896460693
2,6, 1, 6, 0, 4, 0.00,60.00,Friday
8,39875357.1041113
596,21754627.20611333
2,6, 1, 6, 0, 5, 0.00,60.00,Friday
8,38626104.20996498
596,22117469.551707674
2,6, 1, 6, 0, 6, 0.00,60.00,Friday
8,38636463.500452586
596,22508940.17131926
2,6, 1, 6, 0, 7, 0.00,60.00,Friday
8,40838848.1254915
596,48357284.539200835
2,6, 1, 6, 0, 8, 0.00,60.00,Friday
8,39621547.22119592
596,49926251.40182156
2,6, 1, 6, 0, 9, 0.00,60.00,Friday
8,39604971.10657359
596,49299851.17974799
2,6, 1, 6, 0,10, 0.00,60.00,Friday
8,40801666.559050046
596,46954934.7947837
2,6, 1, 6, 0,11, 0.00,60.00,Friday
8,38970549.50677447
596,43751971.73505809
2,6, 1, 6, 0,12, 0.00,60.00,Friday
8,38899778.65035003
596,41077588.673005834
2,6, 1, 6, 0,13, 0.00,60.00,Friday
8,40120376.5781595
596,39637953.459689185
2,6, 1, 6, 0,14, 0.00,60.00,Friday
8,38870012.69692224
596,39952753.31428603
2,6, 1, 6, 0,15, 0.00,60.00,Friday
8,38908289.673484944
596,41399214.51254981
2,6, 1, 6, 0,16, 0.00,60.00,Friday
8,39620406.60551973
596,42446526.89525041
2,6, 1, 6, 0,17, 0.00,60.00,Friday
8,39510454.70895358
596,42458730.209112376
2,6, 1, 6, 0,18, 0.00,60.00,Friday
8,39416752.749795
596,42187206.07740455
2,6, 1, 6, 0,19, 0.00,60.00,Friday
8,38395106.1270296
596,3579867.387872721
2,6, 1, 6, 0,20, 0.00,60.00,Friday
8,39907257.77801096
596,13149509.178165048
2,6, 1, 6, 0,21, 0.00,60.00,Friday
8,38710262.741026625
596,15489423.84869155
2,6, 1, 6, 0,22, 0.00,60.00,Friday
8,40500558.79728082
596,15859726.323616678
2,6, 1, 6, 0,23, 0.00,60.00,Friday
8,41759420.57743587
596,16015042.40920811
2,6, 1, 6, 0,24, 0.00,60.00,Friday
8,40500558.79728082
596,16041792.15501713
2,7, 1, 7, 0, 1, 0.00,60.00,Saturday
8,38517966.029576726
596,18036898.71851573
2,7, 1, 7, 0, 2, 0.00,60.00,Saturday
8,39786131.897773154
596,18390512.352332827
2,7, 1, 7, 0, 3, 0.00,60.00,Saturday
8,38540455.54374499
596,18886762.331931155
2,7, 1, 7, 0, 4, 0.00,60.00,Saturday
8,38518572.77390337
596,18059827.178508364
2,7, 1, 7, 0, 5, 0.00,60.00,Saturday
8,39803469.765678294
596,19047719.142341122
2,7, 1, 7, 0, 6, 0.00,60.00,Saturday
8,38554702.58501534
596,19425148.438625753
2,7, 1, 7, 0, 7, 0.00,60.00,Saturday
8,39489805.13626668
596,44953704.8925953
2,7, 1, 7, 0, 8, 0.00,60.00,Saturday
8,41759104.05811115
596,44674392.90105639
2,7, 1, 7, 0, 9, 0.00,60.00,Saturday
8,40500402.714395076
596,42455756.73762397
2,7, 1, 7, 0,10, 0.00,60.00,Saturday
8,40500402.714395076
596,39355546.84292701
2,7, 1, 7, 0,11, 0.00,60.00,Saturday
8,41271439.6349594
596,36240452.06032033
2,7, 1, 7, 0,12, 0.00,60.00,Saturday
8,40012791.863292135
596,34825852.19824104
2,7, 1, 7, 0,13, 0.00,60.00,Saturday
8,38732319.95916888
596,34755335.63739242
2,7, 1, 7, 0,14, 0.00,60.00,Saturday
8,38737654.90446054
596,34956939.63154834
2,7, 1, 7, 0,15, 0.00,60.00,Saturday
8,40027367.31255793
596,36120481.062123366
2,7, 1, 7, 0,16, 0.00,60.00,Saturday
8,38760183.87732591
596,35808294.36258641
2,7, 1, 7, 0,17, 0.00,60.00,Saturday
8,38775986.08866006
596,36405449.29994592
2,7, 1, 7, 0,18, 0.00,60.00,Saturday
8,40553453.17119888
596,37576441.83212969
2,7, 1, 7, 0,19, 0.00,60.00,Saturday
8,38334109.01194503
596,1280725.7042613677
2,7, 1, 7, 0,20, 0.00,60.00,Saturday
8,38565614.47632806
596,10029161.486998029
2,7, 1, 7, 0,21, 0.00,60.00,Saturday
8,39887145.21552257
596,12399132.84896713
2,7, 1, 7, 0,22, 0.00,60.00,Saturday
8,38653823.152135536
596,13362508.014426697
2,7, 1, 7, 0,23, 0.00,60.00,Saturday
8,38656806.05994245
596,13475230.09407253
2,7, 1, 7, 0,24, 0.00,60.00,Saturday
8,39947482.25340493
596,14681249.085526606
2,8, 1, 8, 0, 1, 0.00,60.00,Sunday
8,38424896.99768314
596,14519882.60378833
2,8, 1, 8, 0, 2, 0.00,60.00,Sunday
8,38434560.211799204
596,14885048.965517985
2,8, 1, 8, 0, 3, 0.00,60.00,Sunday
8,39702355.99502172
596,15228454.818698976
2,8, 1, 8, 0, 4, 0.00,60.00,Sunday
8,38453996.83131364
596,15619545.743417714
2,8, 1, 8, 0, 5, 0.00,60.00,Sunday
8,38461550.588901386
596,15904997.161814498
2,8, 1, 8, 0, 6, 0.00,60.00,Sunday
8,39695035.13768465
596,14953828.730710953
2,8, 1, 8, 0, 7, 0.00,60.00,Sunday
8,39368781.429055095
596,40380300.40060671
2,8, 1, 8, 0, 8, 0.00,60.00,Sunday
8,39372742.990066394
596,40530005.126579754
2,8, 1, 8, 0, 9, 0.00,60.00,Sunday
8,39356562.52015435
596,39918556.05198777
2,8, 1, 8, 0,10, 0.00,60.00,Sunday
8,40552462.508965164
596,36844710.04240809
2,8, 1, 8, 0,11, 0.00,60.00,Sunday
8,38753505.13341043
596,34326882.476968825
2,8, 1, 8, 0,12, 0.00,60.00,Sunday
8,38686030.61874174
596,33006092.598005496
2,8, 1, 8, 0,13, 0.00,60.00,Sunday
8,39940846.69629469
596,32852678.113911398
2,8, 1, 8, 0,14, 0.00,60.00,Sunday
8,38693903.23918986
596,33303593.629420787
2,8, 1, 8, 0,15, 0.00,60.00,Sunday
8,38714109.906951316
596,34067190.01262197
2,8, 1, 8, 0,16, 0.00,60.00,Sunday
8,39988278.00627056
596,34647093.28814277
2,8, 1, 8, 0,17, 0.00,60.00,Sunday
8,38763643.029667966
596,35939013.402881324
2,8, 1, 8, 0,18, 0.00,60.00,Sunday
8,39266628.27811017
596,36520001.53713228
2,8, 1, 8, 0,19, 0.00,60.00,Sunday
8,39592532.93224607
596,708587.4751103709
2,8, 1, 8, 0,20, 0.00,60.00,Sunday
8,38558749.48236055
596,8508998.898621917
2,8, 1, 8, 0,21, 0.00,60.00,Sunday
8,38605168.98692777
596,11415531.41484113
2,8, 1, 8, 0,22, 0.00,60.00,Sunday
8,39905605.43289137
596,13100506.425911559
2,8, 1, 8, 0,23, 0.00,60.00,Sunday
8,38665419.79263008
596,13800737.258528354
2,8, 1, 8, 0,24, 0.00,60.00,Sunday
8,38679685.35120547
596,14339823.121725116
2,9, 1, 9, 0, 1, 0.00,60.00,Monday
8,39674145.55541285
596,14158259.08651172
2,9, 1, 9, 0, 2, 0.00,60.00,Monday
8,38427196.73908832
596,14600890.017360402
2,9, 1, 9, 0, 3, 0.00,60.00,Monday
8,38438098.45659068
596,15012858.58901002
2,9, 1, 9, 0, 4, 0.00,60.00,Monday
8,38450293.90837515
596,15473716.508982627
2,9, 1, 9, 0, 5, 0.00,60.00,Monday
8,39719911.653025314
596,15877364.299441718
2,9, 1, 9, 0, 6, 0.00,60.00,Monday
8,38452309.002782114
596,15549865.571219616
2,9, 1, 9, 0, 7, 0.00,60.00,Monday
8,39416073.713973135
596,42161545.770432524
2,9, 1, 9, 0, 8, 0.00,60.00,Monday
8,40677129.722361304
596,42243668.33854761
2,9, 1, 9, 0, 9, 0.00,60.00,Monday
8,39368744.45038107
596,40373004.73412106
2,9, 1, 9, 0,10, 0.00,60.00,Monday
8,39322908.13398353
596,38640881.16809748
2,9, 1, 9, 0,11, 0.00,60.00,Monday
8,40033286.324261844
596,36341762.882514015
2,9, 1, 9, 0,12, 0.00,60.00,Monday
8,38730795.965129636
596,34691846.66045831
2,9, 1, 9, 0,13, 0.00,60.00,Monday
8,38694091.98615827
596,33304827.983134046
2,9, 1, 9, 0,14, 0.00,60.00,Monday
8,39922610.77592544
596,32161428.23592278
2,9, 1, 9, 0,15, 0.00,60.00,Monday
8,38670153.238694936
596,32400198.818287894
2,9, 1, 9, 0,16, 0.00,60.00,Monday
8,38617498.172264285
596,30410399.274973076
2,9, 1, 9, 0,17, 0.00,60.00,Monday
8,39885330.86467478
596,30754667.109416272
2,9, 1, 9, 0,18, 0.00,60.00,Monday
8,39105400.85529914
596,30421427.407386627
2,9, 1, 9, 0,19, 0.00,60.00,Monday
8,38333736.198929705
596,1260739.0839085067
2,9, 1, 9, 0,20, 0.00,60.00,Monday
8,39624529.387734026
596,2464791.5804543085
2,9, 1, 9, 0,21, 0.00,60.00,Monday
8,38425647.025851056
596,4733987.4117722185
2,9, 1, 9, 0,22, 0.00,60.00,Monday
8,40500558.79728082
596,3582965.412358246
2,9, 1, 9, 0,23, 0.00,60.00,Monday
8,40500558.79728082
596,6547886.089576069
2,9, 1, 9, 0,24, 0.00,60.00,Monday
8,41759501.88611531
596,7110833.465262335
2,10, 1,10, 0, 1, 0.00,60.00,Tuesday
8,38272817.78319569
596,8767013.113279575
2,10, 1,10, 0, 2, 0.00,60.00,Tuesday
8,38317355.04903414
596,10450046.432448748
2,10, 1,10, 0, 3, 0.00,60.00,Tuesday
8,39556940.320602275
596,9720542.859038081
2,10, 1,10, 0, 4, 0.00,60.00,Tuesday
8,38321732.72568585
596,10615475.888583297
2,10, 1,10, 0, 5, 0.00,60.00,Tuesday
8,38343111.95547804
596,11423382.602231914
2,10, 1,10, 0, 6, 0.00,60.00,Tuesday
8,39634429.54665931
596,12650825.93566013
2,10, 1,10, 0, 7, 0.00,60.00,Tuesday
8,39388552.37694256
596,41121532.95557857
2,10, 1,10, 0, 8, 0.00,60.00,Tuesday
8,39425115.16077574
596,42503215.96360258
2,10, 1,10, 0, 9, 0.00,60.00,Tuesday
8,40639859.40988611
596,40839025.10552386
2,10, 1,10, 0,10, 0.00,60.00,Tuesday
8,39328351.74649165
596,38846591.623270765
2,10, 1,10, 0,11, 0.00,60.00,Tuesday
8,38718139.470468186
596,34213566.24027345
2,10, 1,10, 0,12, 0.00,60.00,Tuesday
8,39879369.76926758
596,30529140.579247434
2,10, 1,10, 0,13, 0.00,60.00,Tuesday
8,38530885.133585036
596,27137350.8013548
2,10, 1,10, 0,14, 0.00,60.00,Tuesday
8,38523516.40134296
596,26858891.366318267
2,10, 1,10, 0,15, 0.00,60.00,Tuesday
8,39779264.415904574
596,26748250.00680008
2,10, 1,10, 0,16, 0.00,60.00,Tuesday
8,38563398.61779964
596,28366013.500451516
2,10, 1,10, 0,17, 0.00,60.00,Tuesday
8,38575007.71677228
596,28804713.5420609
2,10, 1,10, 0,18, 0.00,60.00,Tuesday
8,39054828.069827355
596,28510315.860913433
2,10, 1,10, 0,19, 0.00,60.00,Tuesday
8,39592686.19776685
596,1260739.0839085057
2,10, 1,10, 0,20, 0.00,60.00,Tuesday
8,38333736.198929705
596,1260739.083908506
2,10, 1,10, 0,21, 0.00,60.00,Tuesday
8,38366730.64776547
596,2507577.1125302087
2,10, 1,10, 0,22, 0.00,60.00,Tuesday
8,41759455.62477595
596,1701724.3088673346
2,10, 1,10, 0,23, 0.00,60.00,Tuesday
8,40500558.79728082
596,2707927.562119168
2,10, 1,10, 0,24, 0.00,60.00,Tuesday
8,40500558.79728082
596,3306486.1162805744
2,11, 1,11, 0, 1, 0.00,60.00,Wednesday
8,39466674.94422752
596,6311224.941967758
2,11, 1,11, 0, 2, 0.00,60.00,Wednesday
8,38217805.66969116
596,6688142.34645108
2,11, 1,11, 0, 3, 0.00,60.00,Wednesday
8,38214042.1106815
596,6545919.9829385765
2,11, 1,11, 0, 4, 0.00,60.00,Wednesday
8,39481979.983675756
596,6891611.042706976
2,11, 1,11, 0, 5, 0.00,60.00,Wednesday
8,38201157.60723897
596,6059023.26428108
2,11, 1,11, 0, 6, 0.00,60.00,Wednesday
8,38238973.67982909
596,7488067.211436562
2,11, 1,11, 0, 7, 0.00,60.00,Wednesday
8,40441934.1497487
596,33353075.73909516
2,11, 1,11, 0, 8, 0.00,60.00,Wednesday
8,39205845.79367377
596,34217174.066815354
2,11, 1,11, 0, 9, 0.00,60.00,Wednesday
8,39171762.24436785
596,32929179.66398256
2,11, 1,11, 0,10, 0.00,60.00,Wednesday
8,40366933.09020323
596,30529096.85139626
2,11, 1,11, 0,11, 0.00,60.00,Wednesday
8,38571835.309956215
596,28684830.422321025
2,11, 1,11, 0,12, 0.00,60.00,Wednesday
8,38550906.40986944
596,27893941.365337204
2,11, 1,11, 0,13, 0.00,60.00,Wednesday
8,38538417.99647075
596,27422012.623016324
2,11, 1,11, 0,14, 0.00,60.00,Wednesday
8,39771373.75113352
596,26439439.387530062
2,11, 1,11, 0,15, 0.00,60.00,Wednesday
8,38503553.90398677
596,26104522.01849707
2,11, 1,11, 0,16, 0.00,60.00,Wednesday
8,38513627.12227012
596,26485182.16192929
2,11, 1,11, 0,17, 0.00,60.00,Wednesday
8,39767084.28627955
596,26279358.183707148
2,11, 1,11, 0,18, 0.00,60.00,Wednesday
8,38955792.028365046
596,24767810.46814244
2,11, 1,11, 0,19, 0.00,60.00,Wednesday
8,38333736.198929705
596,1260739.0839085067
2,11, 1,11, 0,20, 0.00,60.00,Wednesday
8,39592695.360889204
596,1260739.083908506
2,11, 1,11, 0,21, 0.00,60.00,Wednesday
8,38333736.198929705
596,1260739.083908506
2,11, 1,11, 0,22, 0.00,60.00,Wednesday
8,40500558.79728082
596,1260739.083908506
2,11, 1,11, 0,23, 0.00,60.00,Wednesday
8,41759355.8245092
596,1260739.083908506
2,11, 1,11, 0,24, 0.00,60.00,Wednesday
8,40500558.79728082
596,1260739.083908506
2,12, 1,12, 0, 1, 0.00,60.00,Thursday
8,38115802.23664233
596,2833501.221566329
2,12, 1,12, 0, 2, 0.00,60.00,Thursday
8,39394218.111014105
596,3576905.9261795096
2,12, 1,12, 0, 3, 0.00,60.00,Thursday
8,38142127.738386944
596,3828324.22531203
2,12, 1,12, 0, 4, 0.00,60.00,Thursday
8,38154867.535752274
596,4309752.598645238
2,12, 1,12, 0, 5, 0.00,60.00,Thursday
8,39423412.060249776
596,4682148.498010498
2,12, 1,12, 0, 6, 0.00,60.00,Thursday
8,38173212.118718706
596,5002982.0499267345
2,12, 1,12, 0, 7, 0.00,60.00,Thursday
8,39131317.69870103
596,31400807.487234488
2,12, 1,12, 0, 8, 0.00,60.00,Thursday
8,39220685.09918119
596,29817061.857131355
2,12, 1,12, 0, 9, 0.00,60.00,Thursday
8,40222199.08466348
596,30014952.19226675
2,12, 1,12, 0,10, 0.00,60.00,Thursday
8,39016414.2150311
596,27058682.1262715
2,12, 1,12, 0,11, 0.00,60.00,Thursday
8,38480944.878960036
596,25250142.17012593
2,12, 1,12, 0,12, 0.00,60.00,Thursday
8,39719793.937177636
596,24492027.313015908
2,12, 1,12, 0,13, 0.00,60.00,Thursday
8,38445754.85815443
596,23920334.953560002
2,12, 1,12, 0,14, 0.00,60.00,Thursday
8,38417184.715197414
596,22840688.468198657
2,12, 1,12, 0,15, 0.00,60.00,Thursday
8,39669066.73981185
596,22577097.196799845
2,12, 1,12, 0,16, 0.00,60.00,Thursday
8,38423083.34032382
596,23063593.54416453
2,12, 1,12, 0,17, 0.00,60.00,Thursday
8,38418258.701116666
596,22881273.673697773
2,12, 1,12, 0,18, 0.00,60.00,Thursday
8,40156968.1114443
596,22590094.34634681
2,12, 1,12, 0,19, 0.00,60.00,Thursday
8,38333736.198929705
596,1260739.0839085062
2,12, 1,12, 0,20, 0.00,60.00,Thursday
8,38333736.198929705
596,1260739.083908506
2,12, 1,12, 0,21, 0.00,60.00,Thursday
8,39592650.145107426
596,1260739.083908506
2,12, 1,12, 0,22, 0.00,60.00,Thursday
8,40500558.79728082
596,1260739.083908506
2,12, 1,12, 0,23, 0.00,60.00,Thursday
8,40500558.79728082
596,1260739.083908506
2,12, 1,12, 0,24, 0.00,60.00,Thursday
8,41759255.59910624
596,1260739.083908506
2,13, 1,13, 0, 1, 0.00,60.00,Friday
8,38084071.32307311
596,1634411.340782225
2,13, 1,13, 0, 2, 0.00,60.00,Friday
8,38096615.66841598
596,2108453.713652549
2,13, 1,13, 0, 3, 0.00,60.00,Friday
8,39113564.17467086
596,2520021.5176716326
2,13, 1,13, 0, 4, 0.00,60.00,Friday
8,38377101.21219427
596,3166637.444671331
2,13, 1,13, 0, 5, 0.00,60.00,Friday
8,38149676.97173825
596,4113604.6758568473
2,13, 1,13, 0, 6, 0.00,60.00,Friday
8,38192372.32490877
596,5727033.354220767
2,13, 1,13, 0, 7, 0.00,60.00,Friday
8,40441580.491555676
596,33339464.607802264
2,13, 1,13, 0, 8, 0.00,60.00,Friday
8,39112812.59696221
596,30701512.13951361
2,13, 1,13, 0, 9, 0.00,60.00,Friday
8,39136324.562977046
596,31590013.520484474
2,13, 1,13, 0,10, 0.00,60.00,Friday
8,40291905.96109235
596,27687016.827754993
2,13, 1,13, 0,11, 0.00,60.00,Friday
8,38397012.32864268
596,22078387.548741214
2,13, 1,13, 0,12, 0.00,60.00,Friday
8,38334171.944748476
596,19703691.709374677
2,13, 1,13, 0,13, 0.00,60.00,Friday
8,39559959.53113407
596,18455757.953157663
2,13, 1,13, 0,14, 0.00,60.00,Friday
8,38318170.40815205
596,19099004.40442503
2,13, 1,13, 0,15, 0.00,60.00,Friday
8,38304420.014807165
596,18579386.288776197
2,13, 1,13, 0,16, 0.00,60.00,Friday
8,39664132.227578044
596,22394394.373214897
2,13, 1,13, 0,17, 0.00,60.00,Friday
8,38509616.69634673
596,26333630.86379604
2,13, 1,13, 0,18, 0.00,60.00,Friday
8,39006864.56847246
596,26697807.406148598
2,13, 1,13, 0,19, 0.00,60.00,Friday
8,39592685.681639664
596,1260739.0839085057
2,13, 1,13, 0,20, 0.00,60.00,Friday
8,38333736.198929705
596,1260739.083908506
2,13, 1,13, 0,21, 0.00,60.00,Friday
8,38380883.68964785
596,3042411.0455796774
2,13, 1,13, 0,22, 0.00,60.00,Friday
8,41759209.2280313
596,2731307.911594076
2,13, 1,13, 0,23, 0.00,60.00,Friday
8,40500558.79728082
596,4260871.948617041
2,13, 1,13, 0,24, 0.00,60.00,Friday
8,40500558.79728082
596,5167760.985020952
2,14, 1,14, 0, 1, 0.00,60.00,Saturday
8,38277323.58887344
596,8943182.74639259
2,14, 1,14, 0, 2, 0.00,60.00,Saturday
8,39533006.75017974
596,8820682.368356856
2,14, 1,14, 0, 3, 0.00,60.00,Saturday
8,38287392.39585172
596,9323676.189573247
2,14, 1,14, 0, 4, 0.00,60.00,Saturday
8,38299472.29520031
596,9780167.460717715
2,14, 1,14, 0, 5, 0.00,60.00,Saturday
8,39550272.29395539
596,9475151.679380864
2,14, 1,14, 0, 6, 0.00,60.00,Saturday
8,38282715.44404005
596,9146937.326443817
2,14, 1,14, 0, 7, 0.00,60.00,Saturday
8,39203692.92761777
596,34141716.9738972
2,14, 1,14, 0, 8, 0.00,60.00,Saturday
8,41759220.750573106
596,32580834.713297326
2,14, 1,14, 0, 9, 0.00,60.00,Saturday
8,40500402.714395076
596,32214925.0370511
2,14, 1,14, 0,10, 0.00,60.00,Saturday
8,40500402.714395076
596,29174368.640577022
2,14, 1,14, 0,11, 0.00,60.00,Saturday
8,41271556.44366961
596,25367028.71156771
2,14, 1,14, 0,12, 0.00,60.00,Saturday
8,40012791.863292135
596,22755827.667088915
2,14, 1,14, 0,13, 0.00,60.00,Saturday
8,38511413.07719359
596,26407413.154975582
2,14, 1,14, 0,14, 0.00,60.00,Saturday
8,39730855.05872069
596,24923460.66830447
2,14, 1,14, 0,15, 0.00,60.00,Saturday
8,38449316.60719019
596,24060829.32116804
2,14, 1,14, 0,16, 0.00,60.00,Saturday
8,38427738.47691297
596,23245406.291975588
2,14, 1,14, 0,17, 0.00,60.00,Saturday
8,39679221.61129261
596,22974291.506475084
2,14, 1,14, 0,18, 0.00,60.00,Saturday
8,38899961.396276414
596,22663906.701843183
2,14, 1,14, 0,19, 0.00,60.00,Saturday
8,38333580.11604396
596,1260739.0839085062
2,14, 1,14, 0,20, 0.00,60.00,Saturday
8,38333580.11604396
596,1260739.083908506
2,14, 1,14, 0,21, 0.00,60.00,Saturday
8,39592511.87512365
596,1260739.083908506
2,14, 1,14, 0,22, 0.00,60.00,Saturday
8,38333580.11604396
596,1260739.083908506
2,14, 1,14, 0,23, 0.00,60.00,Saturday
8,38333580.11604396
596,1260739.083908506
2,14, 1,14, 0,24, 0.00,60.00,Saturday
8,39605055.20263216
596,1736755.2394178803
2,15, 1,15, 0, 1, 0.00,60.00,Sunday
8,38090176.49984024
596,1871020.1315861938
2,15, 1,15, 0, 2, 0.00,60.00,Sunday
8,38104478.481123656
596,2411482.3844205
2,15, 1,15, 0, 3, 0.00,60.00,Sunday
8,39375810.67209998
596,2884116.382227975
2,15, 1,15, 0, 4, 0.00,60.00,Sunday
8,38141812.512704365
596,3822310.3260628954
2,15, 1,15, 0, 5, 0.00,60.00,Sunday
8,38168906.34151674
596,4846167.892903415
2,15, 1,15, 0, 6, 0.00,60.00,Sunday
8,39420887.192728505
596,4589547.568583093
2,15, 1,15, 0, 7, 0.00,60.00,Sunday
8,39163080.05943869
596,32606984.002628822
2,15, 1,15, 0, 8, 0.00,60.00,Sunday
8,39106822.01010416
596,30481030.15883147
2,15, 1,15, 0, 9, 0.00,60.00,Sunday
8,40386962.569824934
596,31290569.627059538
2,15, 1,15, 0,10, 0.00,60.00,Sunday
8,39054801.834513396
596,27823324.840292037
2,15, 1,15, 0,11, 0.00,60.00,Sunday
8,38542210.629819036
596,26342086.89556453
2,15, 1,15, 0,12, 0.00,60.00,Sunday
8,39780262.47695357
596,26792291.10471312
2,15, 1,15, 0,13, 0.00,60.00,Sunday
8,38504872.515195206
596,26160249.71640039
2,15, 1,15, 0,14, 0.00,60.00,Sunday
8,38493651.591166444
596,25736218.544824366
2,15, 1,15, 0,15, 0.00,60.00,Sunday
8,38487060.280559525
596,25487137.350467224
2,15, 1,15, 0,16, 0.00,60.00,Sunday
8,39741566.049063556
596,25319615.303378917
2,15, 1,15, 0,17, 0.00,60.00,Sunday
8,38478941.41218694
596,25180330.775618948
2,15, 1,15, 0,18, 0.00,60.00,Sunday
8,38945752.93618625
596,24394338.19451421
2,15, 1,15, 0,19, 0.00,60.00,Sunday
8,39592524.92005513
596,708706.8610522031
2,15, 1,15, 0,20, 0.00,60.00,Sunday
8,38333580.11604396
596,0.0
2,15, 1,15, 0,21, 0.00,60.00,Sunday
8,38333580.11604396
596,1152141.4992243194
2,15, 1,15, 0,22, 0.00,60.00,Sunday
8,39592412.31881919
596,1260739.083908506
2,15, 1,15, 0,23, 0.00,60.00,Sunday
8,38333580.11604396
596,1260739.083908506
2,15, 1,15, 0,24, 0.00,60.00,Sunday
8,38364392.57824386
596,2425121.3052187883
2,16, 1,16, 0, 1, 0.00,60.00,Monday
8,39394686.03474113
596,3593252.843681912
2,16, 1,16, 0, 2, 0.00,60.00,Monday
8,38150895.951087065
596,4159669.08553283
2,16, 1,16, 0, 3, 0.00,60.00,Monday
8,38164892.15771621
596,4688576.319853547
2,16, 1,16, 0, 4, 0.00,60.00,Monday
8,39435039.61558629
596,5120209.057108256
2,16, 1,16, 0, 5, 0.00,60.00,Monday
8,38203354.35435269
596,6142036.860122197
2,16, 1,16, 0, 6, 0.00,60.00,Monday
8,38216928.5608373
596,6654996.992828531
2,16, 1,16, 0, 7, 0.00,60.00,Monday
8,40471472.50260881
596,34469272.14302246
2,16, 1,16, 0, 8, 0.00,60.00,Monday
8,39172386.69804909
596,32952777.348573588
2,16, 1,16, 0, 9, 0.00,60.00,Monday
8,39144364.16367368
596,31893824.623176124