Program Version,EnergyPlus, Version 23.1.0-87ed9199d4, YMD=2023.06.11 19:19
1,5,Environment Title[],Latitude[deg],Longitude[deg],Time Zone[],Elevation[m]
2,8,Day of Simulation[],Month[],Day of Month[],DST Indicator[1=yes 0=no],Hour[],StartMinute[],EndMinute[],DayType
3,5,Cumulative Day of Simulation[],Month[],Day of Month[],DST Indicator[1=yes 0=no],DayType  ! When Daily Report Variables Requested
4,2,Cumulative Days of Simulation[],Month[]  ! When Monthly Report Variables Requested
5,1,Cumulative Days of Simulation[] ! When Run Period Report Variables Requested
6,1,Calendar Year of Simulation[] ! When Annual Report Variables Requested
8,1,Electricity:Facility [J] !TimeStep
2018,1,DistrictHeating:Facility [J] !TimeStep
End of Data Dictionary
1,RUN PERIOD 1,  57.75,-152.50,  -9.00,   5.00
2,1, 1, 1, 0, 1, 0.00,60.00,Sunday
8,9271859.692176525
2018,84845587.63620444
2,1, 1, 1, 0, 2, 0.00,60.00,Sunday
8,9346051.323263247
2018,92059593.27556196
2,1, 1, 1, 0, 3, 0.00,60.00,Sunday
8,9321580.339777704
2018,89953787.87580658
2,1, 1, 1, 0, 4, 0.00,60.00,Sunday
8,10322772.805996595
2018,71206092.95060964
2,1, 1, 1, 0, 5, 0.00,60.00,Sunday
8,8979555.209398402
2018,64526013.56985317
2,1, 1, 1, 0, 6, 0.00,60.00,Sunday
8,8945304.488352899
2018,61570651.682577774
2,1, 1, 1, 0, 7, 0.00,60.00,Sunday
8,11313743.933424503
2018,61311512.81539444
2,1, 1, 1, 0, 8, 0.00,60.00,Sunday
8,10054983.644547507
2018,61332245.26125137
2,1, 1, 1, 0, 9, 0.00,60.00,Sunday
8,10052579.218879752
2018,61204852.82747202
2,1, 1, 1, 0,10, 0.00,60.00,Sunday
8,11239237.086843526
2018,55700572.540842935
2,1, 1, 1, 0,11, 0.00,60.00,Sunday
8,6483669.6723537855
2018,43900985.94976265
2,1, 1, 1, 0,12, 0.00,60.00,Sunday
8,6432333.801524394
2018,42515926.06401892
2,1, 1, 1, 0,13, 0.00,60.00,Sunday
8,7673813.675533473
2018,41659094.62124165
2,1, 1, 1, 0,14, 0.00,60.00,Sunday
8,6438910.08447918
2018,41892650.79528007
2,1, 1, 1, 0,15, 0.00,60.00,Sunday
8,6568203.372982461
2018,48564121.95199755
2,1, 1, 1, 0,16, 0.00,60.00,Sunday
8,7876343.900314259
2018,50772991.720241874
2,1, 1, 1, 0,17, 0.00,60.00,Sunday
8,9986701.022595283
2018,55977077.09027111
2,1, 1, 1, 0,18, 0.00,60.00,Sunday
8,10002094.146837186
2018,57908750.57291913
2,1, 1, 1, 0,19, 0.00,60.00,Sunday
8,11270394.727275126
2018,58419171.17599849
2,1, 1, 1, 0,20, 0.00,60.00,Sunday
8,10049762.420407677
2018,61285171.42255104
2,1, 1, 1, 0,21, 0.00,60.00,Sunday
8,10054805.959896121
2018,61732685.20712377
2,1, 1, 1, 0,22, 0.00,60.00,Sunday
8,10058042.821029017
2018,61932905.46007871
2,1, 1, 1, 0,23, 0.00,60.00,Sunday
8,11365090.623561226
2018,65632010.16584575
2,1, 1, 1, 0,24, 0.00,60.00,Sunday
8,10149508.875894906
2018,68880024.38046171
2,2, 1, 2, 0, 1, 0.00,60.00,Monday
8,10450894.308124043
2018,68726381.44925563
2,2, 1, 2, 0, 2, 0.00,60.00,Monday
8,11715330.653020702
2018,69064092.09774624
2,2, 1, 2, 0, 3, 0.00,60.00,Monday
8,10502971.710777178
2018,72522199.10521795
2,2, 1, 2, 0, 4, 0.00,60.00,Monday
8,10463172.496208016
2018,69594055.8641989
2,2, 1, 2, 0, 5, 0.00,60.00,Monday
8,11723626.1759927
2018,69594601.5973286
2,2, 1, 2, 0, 6, 0.00,60.00,Monday
8,10468193.578388512
2018,69811653.88497855
2,2, 1, 2, 0, 7, 0.00,60.00,Monday
8,15624198.978393791
2018,91320451.35576445
2,2, 1, 2, 0, 8, 0.00,60.00,Monday
8,19626591.04990842
2018,90189127.06356421
2,2, 1, 2, 0, 9, 0.00,60.00,Monday
8,27602670.493071757
2018,78954208.76319502
2,2, 1, 2, 0,10, 0.00,60.00,Monday
8,30616410.84836002
2018,73424016.9734956
2,2, 1, 2, 0,11, 0.00,60.00,Monday
8,28637638.54976208
2018,59516630.55763378
2,2, 1, 2, 0,12, 0.00,60.00,Monday
8,26963613.87322926
2018,53220945.813519344
2,2, 1, 2, 0,13, 0.00,60.00,Monday
8,21674627.21784371
2018,52421005.37564792
2,2, 1, 2, 0,14, 0.00,60.00,Monday
8,28380971.44034869
2018,50194862.64604579
2,2, 1, 2, 0,15, 0.00,60.00,Monday
8,27367597.41660941
2018,54630120.36079131
2,2, 1, 2, 0,16, 0.00,60.00,Monday
8,27553982.323884707
2018,65606692.05922848
2,2, 1, 2, 0,17, 0.00,60.00,Monday
8,28594984.799243372
2018,69902268.25961971
2,2, 1, 2, 0,18, 0.00,60.00,Monday
8,17067342.47325742
2018,78026337.08771072
2,2, 1, 2, 0,19, 0.00,60.00,Monday
8,11246658.394798614
2018,63884970.372236215
2,2, 1, 2, 0,20, 0.00,60.00,Monday
8,11232704.828803817
2018,72520179.49465609
2,2, 1, 2, 0,21, 0.00,60.00,Monday
8,12785091.021781579
2018,81004022.16561215
2,2, 1, 2, 0,22, 0.00,60.00,Monday
8,11692015.731319046
2018,87909126.82792486
2,2, 1, 2, 0,23, 0.00,60.00,Monday
8,11788565.014598466
2018,93754203.15292719
2,2, 1, 2, 0,24, 0.00,60.00,Monday
8,13053381.583126677
2018,92213952.28901699
2,3, 1, 3, 0, 1, 0.00,60.00,Tuesday
8,10779400.401619218
2018,100106711.27406545
2,3, 1, 3, 0, 2, 0.00,60.00,Tuesday
8,10832982.101391777
2018,104198596.31155172
2,3, 1, 3, 0, 3, 0.00,60.00,Tuesday
8,12144896.166651718
2018,108638517.92245895
2,3, 1, 3, 0, 4, 0.00,60.00,Tuesday
8,10833348.890587749
2018,103252106.61072403
2,3, 1, 3, 0, 5, 0.00,60.00,Tuesday
8,10839867.523614543
2018,103346249.94364505
2,3, 1, 3, 0, 6, 0.00,60.00,Tuesday
8,12029694.343863089
2018,96792060.01103047
2,3, 1, 3, 0, 7, 0.00,60.00,Tuesday
8,15972307.306237336
2018,121282307.75251243
2,3, 1, 3, 0, 8, 0.00,60.00,Tuesday
8,18682646.153329473
2018,117580743.97103676
2,3, 1, 3, 0, 9, 0.00,60.00,Tuesday
8,29253589.74280156
2018,113016602.55666724
2,3, 1, 3, 0,10, 0.00,60.00,Tuesday
8,31051497.972883534
2018,108412630.04299504
2,3, 1, 3, 0,11, 0.00,60.00,Tuesday
8,27939211.649740737
2018,98850414.37858117
2,3, 1, 3, 0,12, 0.00,60.00,Tuesday
8,27445046.25834912
2018,84901301.18109253
2,3, 1, 3, 0,13, 0.00,60.00,Tuesday
8,23322405.183767434
2018,77090308.42097083
2,3, 1, 3, 0,14, 0.00,60.00,Tuesday
8,27450432.008132547
2018,69736709.16176403
2,3, 1, 3, 0,15, 0.00,60.00,Tuesday
8,27635512.626152948
2018,72444969.19150206
2,3, 1, 3, 0,16, 0.00,60.00,Tuesday
8,28912931.804778293
2018,74621361.62041311
2,3, 1, 3, 0,17, 0.00,60.00,Tuesday
8,28680858.397612825
2018,77822137.44705564
2,3, 1, 3, 0,18, 0.00,60.00,Tuesday
8,15840503.06385437
2018,81431464.57857099
2,3, 1, 3, 0,19, 0.00,60.00,Tuesday
8,12378843.814278884
2018,57245537.07584578
2,3, 1, 3, 0,20, 0.00,60.00,Tuesday
8,11056814.6762425
2018,62118493.62340492
2,3, 1, 3, 0,21, 0.00,60.00,Tuesday
8,11325689.878434077
2018,69537184.48843598
2,3, 1, 3, 0,22, 0.00,60.00,Tuesday
8,12761428.463798752
2018,73517440.99533357
2,3, 1, 3, 0,23, 0.00,60.00,Tuesday
8,11614465.71129543
2018,78785013.35244691
2,3, 1, 3, 0,24, 0.00,60.00,Tuesday
8,11726894.828635044
2018,86538266.66468254
2,4, 1, 4, 0, 1, 0.00,60.00,Wednesday
8,11939437.987893075
2018,91519932.74601887
2,4, 1, 4, 0, 2, 0.00,60.00,Wednesday
8,10668051.99805861
2018,89346741.18101785
2,4, 1, 4, 0, 3, 0.00,60.00,Wednesday
8,10718275.55734075
2018,93337641.25611067
2,4, 1, 4, 0, 4, 0.00,60.00,Wednesday
8,11988817.954477519
2018,93942373.84968604
2,4, 1, 4, 0, 5, 0.00,60.00,Wednesday
8,10743539.816564394
2018,94657848.86811623
2,4, 1, 4, 0, 6, 0.00,60.00,Wednesday
8,10750516.431280436
2018,94905243.88232376
2,4, 1, 4, 0, 7, 0.00,60.00,Wednesday
8,15852754.94030772
2018,112695974.85793343
2,4, 1, 4, 0, 8, 0.00,60.00,Wednesday
8,19893699.19608963
2018,112151751.6358151
2,4, 1, 4, 0, 9, 0.00,60.00,Wednesday
8,27864553.779872518
2018,100715734.17063624
2,4, 1, 4, 0,10, 0.00,60.00,Wednesday
8,30833792.490733564
2018,89565868.94945407
2,4, 1, 4, 0,11, 0.00,60.00,Wednesday
8,28883942.442933396
2018,74807201.84977306
2,4, 1, 4, 0,12, 0.00,60.00,Wednesday
8,27120739.086501792
2018,59814928.14314961
2,4, 1, 4, 0,13, 0.00,60.00,Wednesday
8,21798607.243207134
2018,57268609.694572054
2,4, 1, 4, 0,14, 0.00,60.00,Wednesday
8,28499840.6200012
2018,55237074.99629626
2,4, 1, 4, 0,15, 0.00,60.00,Wednesday
8,27505270.024467774
2018,62404902.25871802
2,4, 1, 4, 0,16, 0.00,60.00,Wednesday
8,27599846.4919325
2018,70069234.85032746
2,4, 1, 4, 0,17, 0.00,60.00,Wednesday
8,29875458.647521652
2018,72439701.31010017
2,4, 1, 4, 0,18, 0.00,60.00,Wednesday
8,15797422.901599482
2018,78567991.14923982
2,4, 1, 4, 0,19, 0.00,60.00,Wednesday
8,11078501.59393802
2018,55153315.09615558
2,4, 1, 4, 0,20, 0.00,60.00,Wednesday
8,11968190.010890875
2018,39719022.41814409
2,4, 1, 4, 0,21, 0.00,60.00,Wednesday
8,11027625.901957616
2018,50353784.39422384
2,4, 1, 4, 0,22, 0.00,60.00,Wednesday
8,11250762.986110572
2018,57388577.763087235
2,4, 1, 4, 0,23, 0.00,60.00,Wednesday
8,12624325.526337769
2018,62447884.419957
2,4, 1, 4, 0,24, 0.00,60.00,Wednesday
8,11449089.740701113
2018,67007089.377669364
2,5, 1, 5, 0, 1, 0.00,60.00,Thursday
8,10473346.12143294
2018,74615301.96186088
2,5, 1, 5, 0, 2, 0.00,60.00,Thursday
8,10552707.344180165
2018,79101869.11111924
2,5, 1, 5, 0, 3, 0.00,60.00,Thursday
8,11893811.870725716
2018,85988742.67532574
2,5, 1, 5, 0, 4, 0.00,60.00,Thursday
8,10679369.387710158
2018,89753835.47712098
2,5, 1, 5, 0, 5, 0.00,60.00,Thursday
8,10729006.447175743
2018,93630465.55807333
2,5, 1, 5, 0, 6, 0.00,60.00,Thursday
8,12067541.5234108
2018,100758431.70234227
2,5, 1, 5, 0, 7, 0.00,60.00,Thursday
8,16056015.418067943
2018,128681215.47998601
2,5, 1, 5, 0, 8, 0.00,60.00,Thursday
8,18825858.439553224
2018,131772031.49834935
2,5, 1, 5, 0, 9, 0.00,60.00,Thursday
8,29359427.024255414
2018,124114433.62894887
2,5, 1, 5, 0,10, 0.00,60.00,Thursday
8,31131411.44632727
2018,116325722.81851324
2,5, 1, 5, 0,11, 0.00,60.00,Thursday
8,28007815.27992536
2018,105812025.28484005
2,5, 1, 5, 0,12, 0.00,60.00,Thursday
8,28893885.78518288
2018,99458772.39380647
2,5, 1, 5, 0,13, 0.00,60.00,Thursday
8,22358700.621815793
2018,99521488.12989321
2,5, 1, 5, 0,14, 0.00,60.00,Thursday
8,27847843.97598471
2018,100574492.73157418
2,5, 1, 5, 0,15, 0.00,60.00,Thursday
8,29281517.57550767
2018,103111154.2384464
2,5, 1, 5, 0,16, 0.00,60.00,Thursday
8,28114316.305760562
2018,111791615.39532995
2,5, 1, 5, 0,17, 0.00,60.00,Thursday
8,29164284.02931961
2018,120415623.11249804
2,5, 1, 5, 0,18, 0.00,60.00,Thursday
8,17588143.735236477
2018,125448136.42026314
2,5, 1, 5, 0,19, 0.00,60.00,Thursday
8,11766126.229311775
2018,104416637.98414391
2,5, 1, 5, 0,20, 0.00,60.00,Thursday
8,11668275.283327056
2018,110331226.33532648
2,5, 1, 5, 0,21, 0.00,60.00,Thursday
8,11957600.076607805
2018,118543261.73727272
2,5, 1, 5, 0,22, 0.00,60.00,Thursday
8,13306511.377390904
2018,119691963.08776778
2,5, 1, 5, 0,23, 0.00,60.00,Thursday
8,12110076.654510677
2018,122062581.58626692
2,5, 1, 5, 0,24, 0.00,60.00,Thursday
8,12151255.761219047
2018,123885030.52751116
2,6, 1, 6, 0, 1, 0.00,60.00,Friday
8,12321377.28737878
2018,125026543.30649747
2,6, 1, 6, 0, 2, 0.00,60.00,Friday
8,11150507.708584055
2018,128941767.10022284
2,6, 1, 6, 0, 3, 0.00,60.00,Friday
8,11105860.295788487
2018,126915345.18959224
2,6, 1, 6, 0, 4, 0.00,60.00,Friday
8,12438151.603236362
2018,130609979.88100486
2,6, 1, 6, 0, 5, 0.00,60.00,Friday
8,11190115.942113508
2018,131203297.7275392
2,6, 1, 6, 0, 6, 0.00,60.00,Friday
8,11200508.233030913
2018,131856986.26571417
2,6, 1, 6, 0, 7, 0.00,60.00,Friday
8,17635210.578547396
2018,150079910.5880124
2,6, 1, 6, 0, 8, 0.00,60.00,Friday
8,18978981.97796318
2018,145891432.26225686
2,6, 1, 6, 0, 9, 0.00,60.00,Friday
8,28264369.195427373
2018,137712766.94610918
2,6, 1, 6, 0,10, 0.00,60.00,Friday
8,32555078.536370125
2018,132473975.41491297
2,6, 1, 6, 0,11, 0.00,60.00,Friday
8,28217145.362962436
2018,126146400.4448375
2,6, 1, 6, 0,12, 0.00,60.00,Friday
8,27846302.568199333
2018,119891726.1038102
2,6, 1, 6, 0,13, 0.00,60.00,Friday
8,23784238.559614506
2018,116023586.33946031
2,6, 1, 6, 0,14, 0.00,60.00,Friday
8,28013152.575421967
2018,116935260.78414609
2,6, 1, 6, 0,15, 0.00,60.00,Friday
8,28182228.187670022
2018,119993450.744203
2,6, 1, 6, 0,16, 0.00,60.00,Friday
8,28862716.515755042
2018,124793023.0697412
2,6, 1, 6, 0,17, 0.00,60.00,Friday
8,26597135.231250256
2018,127799921.24047484
2,6, 1, 6, 0,18, 0.00,60.00,Friday
8,16408423.910400737
2018,131645967.54214206
2,6, 1, 6, 0,19, 0.00,60.00,Friday
8,11751149.38130845
2018,103397829.45840652
2,6, 1, 6, 0,20, 0.00,60.00,Friday
8,12920084.960458882
2018,108876795.70118886
2,6, 1, 6, 0,21, 0.00,60.00,Friday
8,11907550.1622607
2018,114556384.04721768
2,6, 1, 6, 0,22, 0.00,60.00,Friday
8,12076319.701639533
2018,121944937.20799296
2,6, 1, 6, 0,23, 0.00,60.00,Friday
8,13346152.172500942
2018,120771902.72027592
2,6, 1, 6, 0,24, 0.00,60.00,Friday
8,12091233.303182967
2018,119276997.45566696
2,7, 1, 7, 0, 1, 0.00,60.00,Saturday
8,14094022.325235393
2018,137456186.24521726
2,7, 1, 7, 0, 2, 0.00,60.00,Saturday
8,15414414.528882816
2018,135913851.05442595
2,7, 1, 7, 0, 3, 0.00,60.00,Saturday
8,12940683.00750925
2018,103689535.43654835
2,7, 1, 7, 0, 4, 0.00,60.00,Saturday
8,13093355.568743624
2018,101850345.81861897
2,7, 1, 7, 0, 5, 0.00,60.00,Saturday
8,14531906.396498326
2018,108101244.56687559
2,7, 1, 7, 0, 6, 0.00,60.00,Saturday
8,13381424.168886118
2018,111477057.08310583
2,7, 1, 7, 0, 7, 0.00,60.00,Saturday
8,14526700.10325948
2018,112313201.53932105
2,7, 1, 7, 0, 8, 0.00,60.00,Saturday
8,15735942.532065803
2018,106684495.02470681
2,7, 1, 7, 0, 9, 0.00,60.00,Saturday
8,18640421.008263603
2018,98577212.28183432
2,7, 1, 7, 0,10, 0.00,60.00,Saturday
8,18611166.476293437
2018,95559542.86058581
2,7, 1, 7, 0,11, 0.00,60.00,Saturday
8,16537651.922915637
2018,91804609.95362175
2,7, 1, 7, 0,12, 0.00,60.00,Saturday
8,15256540.999936732
2018,89882759.84021862
2,7, 1, 7, 0,13, 0.00,60.00,Saturday
8,10990776.044808254
2018,88526735.5397753
2,7, 1, 7, 0,14, 0.00,60.00,Saturday
8,15262030.093502466
2018,89824921.71390527
2,7, 1, 7, 0,15, 0.00,60.00,Saturday
8,16560969.91310656
2018,93126273.0033924
2,7, 1, 7, 0,16, 0.00,60.00,Saturday
8,15299190.940666663
2018,92287995.92257419
2,7, 1, 7, 0,17, 0.00,60.00,Saturday
8,15350118.761286035
2018,96448555.41237925
2,7, 1, 7, 0,18, 0.00,60.00,Saturday
8,15752426.502911527
2018,105670640.30632906
2,7, 1, 7, 0,19, 0.00,60.00,Saturday
8,14507005.321443362
2018,106726527.15136026
2,7, 1, 7, 0,20, 0.00,60.00,Saturday
8,14515465.934329975
2018,107237414.85243736
2,7, 1, 7, 0,21, 0.00,60.00,Saturday
8,15779290.6222122
2018,107524635.46526995
2,7, 1, 7, 0,22, 0.00,60.00,Saturday
8,14487218.47466952
2018,104440816.1362095
2,7, 1, 7, 0,23, 0.00,60.00,Saturday
8,17635924.063331053
2018,122871196.37717248
2,7, 1, 7, 0,24, 0.00,60.00,Saturday
8,16450256.214931592
2018,125245223.1968828
2,8, 1, 8, 0, 1, 0.00,60.00,Sunday
8,8872959.046391185
2018,89718583.07707518
2,8, 1, 8, 0, 2, 0.00,60.00,Sunday
8,9119870.717183286
2018,94167469.67228653
2,8, 1, 8, 0, 3, 0.00,60.00,Sunday
8,10544251.227053925
2018,97720333.12385972
2,8, 1, 8, 0, 4, 0.00,60.00,Sunday
8,9380501.942552164
2018,100666344.04489332
2,8, 1, 8, 0, 5, 0.00,60.00,Sunday
8,9413267.139556857
2018,101770468.65062888
2,8, 1, 8, 0, 6, 0.00,60.00,Sunday
8,10627589.968925366
2018,96177814.13983256
2,8, 1, 8, 0, 7, 0.00,60.00,Sunday
8,10417209.668725118
2018,90242423.24980073
2,8, 1, 8, 0, 8, 0.00,60.00,Sunday
8,10396503.897684256
2018,87684400.88208793
2,8, 1, 8, 0, 9, 0.00,60.00,Sunday
8,10398991.904189168
2018,87648305.53436933
2,8, 1, 8, 0,10, 0.00,60.00,Sunday
8,11660400.396122573
2018,87695265.83361544
2,8, 1, 8, 0,11, 0.00,60.00,Sunday
8,7105321.212971163
2018,87602291.9720995
2,8, 1, 8, 0,12, 0.00,60.00,Sunday
8,7017671.557285637
2018,81998199.8384234
2,8, 1, 8, 0,13, 0.00,60.00,Sunday
8,8293099.260140477
2018,82099866.32085142
2,8, 1, 8, 0,14, 0.00,60.00,Sunday
8,7083964.791574264
2018,85533293.25856395
2,8, 1, 8, 0,15, 0.00,60.00,Sunday
8,7139625.414010145
2018,90121866.77939245
2,8, 1, 8, 0,16, 0.00,60.00,Sunday
8,8444973.612383373
2018,94203425.45098299
2,8, 1, 8, 0,17, 0.00,60.00,Sunday
8,7264694.9492505705
2018,101591919.26404345
2,8, 1, 8, 0,18, 0.00,60.00,Sunday
8,10597594.556551019
2018,105913986.39746122
2,8, 1, 8, 0,19, 0.00,60.00,Sunday
8,11903377.675590372
2018,109957807.18566224
2,8, 1, 8, 0,20, 0.00,60.00,Sunday
8,10650310.108102841
2018,110428435.80337736
2,8, 1, 8, 0,21, 0.00,60.00,Sunday
8,10615994.217635248
2018,107259758.05854481
2,8, 1, 8, 0,22, 0.00,60.00,Sunday
8,11875232.949932367
2018,107203928.0588003
2,8, 1, 8, 0,23, 0.00,60.00,Sunday
8,10618480.17234752
2018,107294038.73792082
2,8, 1, 8, 0,24, 0.00,60.00,Sunday
8,10619775.597896267
2018,107377187.1074591
2,9, 1, 9, 0, 1, 0.00,60.00,Monday
8,12138158.887035072
2018,103453781.74226801
2,9, 1, 9, 0, 2, 0.00,60.00,Monday
8,10879088.092178343
2018,103295451.78535123
2,9, 1, 9, 0, 3, 0.00,60.00,Monday
8,10879711.55756085
2018,103342668.88697672
2,9, 1, 9, 0, 4, 0.00,60.00,Monday
8,10884070.525759326
2018,103633073.36383861
2,9, 1, 9, 0, 5, 0.00,60.00,Monday
8,12148522.776385315
2018,104022905.29064798
2,9, 1, 9, 0, 6, 0.00,60.00,Monday
8,10857886.447580278
2018,100957316.4001695
2,9, 1, 9, 0, 7, 0.00,60.00,Monday
8,16053243.508289954
2018,122589676.07905339
2,9, 1, 9, 0, 8, 0.00,60.00,Monday
8,19912957.87644721
2018,114409491.0147473
2,9, 1, 9, 0, 9, 0.00,60.00,Monday
8,27870527.175667893
2018,99392502.40917067
2,9, 1, 9, 0,10, 0.00,60.00,Monday
8,30913595.85142434
2018,96512707.00921747
2,9, 1, 9, 0,11, 0.00,60.00,Monday
8,29076828.36384397
2018,89603649.28574282
2,9, 1, 9, 0,12, 0.00,60.00,Monday
8,27439321.146737944
2018,84418687.50682198
2,9, 1, 9, 0,13, 0.00,60.00,Monday
8,22106711.69878921
2018,81576176.26062842
2,9, 1, 9, 0,14, 0.00,60.00,Monday
8,28768970.11292786
2018,76184607.30316748
2,9, 1, 9, 0,15, 0.00,60.00,Monday
8,27674651.33686395
2018,77940765.720291
2,9, 1, 9, 0,16, 0.00,60.00,Monday
8,27561981.871953864
2018,69034872.06143491
2,9, 1, 9, 0,17, 0.00,60.00,Monday
8,26624740.365042664
2018,73668779.6989366
2,9, 1, 9, 0,18, 0.00,60.00,Monday
8,15780586.577621274
2018,76797703.30848214
2,9, 1, 9, 0,19, 0.00,60.00,Monday
8,11080539.193182897
2018,54917727.6542956
2,9, 1, 9, 0,20, 0.00,60.00,Monday
8,12306017.061865255
2018,59825918.36454719
2,9, 1, 9, 0,21, 0.00,60.00,Monday
8,11251891.278960656
2018,61246919.20648181
2,9, 1, 9, 0,22, 0.00,60.00,Monday
8,11375863.22198435
2018,64330703.56342772
2,9, 1, 9, 0,23, 0.00,60.00,Monday
8,11602629.259096276
2018,75804337.11184436
2,9, 1, 9, 0,24, 0.00,60.00,Monday
8,12900347.261435058
2018,77253420.02851157
2,10, 1,10, 0, 1, 0.00,60.00,Tuesday
8,10429827.253035162
2018,71895769.68778777
2,10, 1,10, 0, 2, 0.00,60.00,Tuesday
8,10561415.626657732
2018,78313597.7014394
2,10, 1,10, 0, 3, 0.00,60.00,Tuesday
8,11722899.374865986
2018,73363704.6805934
2,10, 1,10, 0, 4, 0.00,60.00,Tuesday
8,10530293.951235242
2018,76305065.64462438
2,10, 1,10, 0, 5, 0.00,60.00,Tuesday
8,10588142.730506266
2018,79412598.69478856
2,10, 1,10, 0, 6, 0.00,60.00,Tuesday
8,11897692.610777875
2018,83545283.5236084
2,10, 1,10, 0, 7, 0.00,60.00,Tuesday
8,15860902.89209707
2018,111351516.09385058
2,10, 1,10, 0, 8, 0.00,60.00,Tuesday
8,18647107.470484927
2018,113751419.24256304
2,10, 1,10, 0, 9, 0.00,60.00,Tuesday
8,29119231.865235753
2018,99595121.48019607
2,10, 1,10, 0,10, 0.00,60.00,Tuesday
8,30919864.08794127
2018,96546295.90423642
2,10, 1,10, 0,11, 0.00,60.00,Tuesday
8,27686162.81086267
2018,80103925.09998775
2,10, 1,10, 0,12, 0.00,60.00,Tuesday
8,28450099.142229564
2018,65280405.204873905
2,10, 1,10, 0,13, 0.00,60.00,Tuesday
8,21763837.823692176
2018,55554806.44688493
2,10, 1,10, 0,14, 0.00,60.00,Tuesday
8,27204736.296029806
2018,53301721.90965793
2,10, 1,10, 0,15, 0.00,60.00,Tuesday
8,28634775.325079896
2018,54558947.78875377
2,10, 1,10, 0,16, 0.00,60.00,Tuesday
8,27469399.788186245
2018,59951636.747615516
2,10, 1,10, 0,17, 0.00,60.00,Tuesday
8,25223129.706053752
2018,63750811.12619359
2,10, 1,10, 0,18, 0.00,60.00,Tuesday
8,15664177.214811249
2018,67059796.320934266
2,10, 1,10, 0,19, 0.00,60.00,Tuesday
8,12129337.944317294
2018,43157310.85343152
2,10, 1,10, 0,20, 0.00,60.00,Tuesday
8,10845106.650348874
2018,47866198.04134488
2,10, 1,10, 0,21, 0.00,60.00,Tuesday
8,11061965.17240604
2018,51611914.08147333
2,10, 1,10, 0,22, 0.00,60.00,Tuesday
8,12486083.208390065
2018,55121922.099883445
2,10, 1,10, 0,23, 0.00,60.00,Tuesday
8,11301183.675716108
2018,57201409.26174708
2,10, 1,10, 0,24, 0.00,60.00,Tuesday
8,11337529.43162073
2018,58272224.71910087
2,11, 1,11, 0, 1, 0.00,60.00,Wednesday
8,11503207.986353148
2018,58810015.33287525
2,11, 1,11, 0, 2, 0.00,60.00,Wednesday
8,10261901.656575145
2018,59403544.541480824
2,11, 1,11, 0, 3, 0.00,60.00,Wednesday
8,10237700.228157833
2018,57204014.31678834
2,11, 1,11, 0, 4, 0.00,60.00,Wednesday
8,11505993.901891205
2018,57403844.137754515
2,11, 1,11, 0, 5, 0.00,60.00,Wednesday
8,10177908.168217747
2018,51962055.19975753
2,11, 1,11, 0, 6, 0.00,60.00,Wednesday
8,10261009.431563979
2018,57566472.00222961
2,11, 1,11, 0, 7, 0.00,60.00,Wednesday
8,16624007.643828675
2018,80974604.06676088
2,11, 1,11, 0, 8, 0.00,60.00,Wednesday
8,18200820.241003286
2018,77298796.16763204
2,11, 1,11, 0, 9, 0.00,60.00,Wednesday
8,27393248.731655963
2018,63943844.47675362
2,11, 1,11, 0,10, 0.00,60.00,Wednesday
8,31695328.515642032
2018,58482700.08399978
2,11, 1,11, 0,11, 0.00,60.00,Wednesday
8,27344663.869800102
2018,53579897.914789215
2,11, 1,11, 0,12, 0.00,60.00,Wednesday
8,27030969.85781109
2018,53232673.50214408
2,11, 1,11, 0,13, 0.00,60.00,Wednesday
8,21753148.16347053
2018,53667209.87030341
2,11, 1,11, 0,14, 0.00,60.00,Wednesday
8,28405789.531071756
2018,50275231.93669308
2,11, 1,11, 0,15, 0.00,60.00,Wednesday
8,27280227.839769598
2018,49657834.00637015
2,11, 1,11, 0,16, 0.00,60.00,Wednesday
8,27323475.54185968
2018,51284515.66870164
2,11, 1,11, 0,17, 0.00,60.00,Wednesday
8,26309546.47967448
2018,53213318.335567184
2,11, 1,11, 0,18, 0.00,60.00,Wednesday
8,15420196.363508977
2018,51275941.65615037
2,11, 1,11, 0,19, 0.00,60.00,Wednesday
8,10661447.978784073
2018,30931838.72519736
2,11, 1,11, 0,20, 0.00,60.00,Wednesday
8,11856844.682774002
2018,33817691.3096181
2,11, 1,11, 0,21, 0.00,60.00,Wednesday
8,10775569.122147556
2018,36290374.976443894
2,11, 1,11, 0,22, 0.00,60.00,Wednesday
8,10956743.173866563
2018,38810094.495067455
2,11, 1,11, 0,23, 0.00,60.00,Wednesday
8,12325635.465542603
2018,41081636.75203262
2,11, 1,11, 0,24, 0.00,60.00,Wednesday
8,11104559.99969221
2018,42173758.48165971
2,12, 1,12, 0, 1, 0.00,60.00,Thursday
8,10021827.853811674
2018,43120291.4262931
2,12, 1,12, 0, 2, 0.00,60.00,Thursday
8,11299911.014726149
2018,43767258.92226048
2,12, 1,12, 0, 3, 0.00,60.00,Thursday
8,10055569.969818164
2018,44246364.319250084
2,12, 1,12, 0, 4, 0.00,60.00,Thursday
8,10066317.526416805
2018,44577282.50319551
2,12, 1,12, 0, 5, 0.00,60.00,Thursday
8,11333559.633418243
2018,44833855.455454305
2,12, 1,12, 0, 6, 0.00,60.00,Thursday
8,10082287.264999839
2018,45045558.45692593
2,12, 1,12, 0, 7, 0.00,60.00,Thursday
8,15063796.904876791
2018,62548768.438910306
2,12, 1,12, 0, 8, 0.00,60.00,Thursday
8,18011572.919349615
2018,59530207.65247729
2,12, 1,12, 0, 9, 0.00,60.00,Thursday
8,28415835.071656503
2018,54061927.670735106
2,12, 1,12, 0,10, 0.00,60.00,Thursday
8,30213619.31463425
2018,47687041.60777375
2,12, 1,12, 0,11, 0.00,60.00,Thursday
8,27144163.46826145
2018,44290097.573313184
2,12, 1,12, 0,12, 0.00,60.00,Thursday
8,28066711.816435914
2018,42801494.80292166
2,12, 1,12, 0,13, 0.00,60.00,Thursday
8,21524829.99221835
2018,42797271.18284464
2,12, 1,12, 0,14, 0.00,60.00,Thursday
8,26903473.92475941
2018,39638375.896504514
2,12, 1,12, 0,15, 0.00,60.00,Thursday
8,28294816.179281395
2018,39016716.36150094
2,12, 1,12, 0,16, 0.00,60.00,Thursday
8,27091082.137994956
2018,40487220.34828316
2,12, 1,12, 0,17, 0.00,60.00,Thursday
8,24795566.46222074
2018,42395130.82250071
2,12, 1,12, 0,18, 0.00,60.00,Thursday
8,16493914.472007077
2018,43945547.62459652
2,12, 1,12, 0,19, 0.00,60.00,Thursday
8,10563698.277403288
2018,26790541.05121629
2,12, 1,12, 0,20, 0.00,60.00,Thursday
8,10476792.995217135
2018,29441085.35318721
2,12, 1,12, 0,21, 0.00,60.00,Thursday
8,11904710.17316962
2018,31723393.632539473
2,12, 1,12, 0,22, 0.00,60.00,Thursday
8,10792839.082337769
2018,33885555.964843616
2,12, 1,12, 0,23, 0.00,60.00,Thursday
8,10917917.47753455
2018,36015958.84337268
2,12, 1,12, 0,24, 0.00,60.00,Thursday
8,12226756.325942274
2018,37115796.56482863
2,13, 1,13, 0, 1, 0.00,60.00,Friday
8,9888309.52612346
2018,37912690.198774725
2,13, 1,13, 0, 2, 0.00,60.00,Friday
8,9920279.483427653
2018,38567166.156356655
2,13, 1,13, 0, 3, 0.00,60.00,Friday
8,10886066.217009215
2018,39051547.59820088
2,13, 1,13, 0, 4, 0.00,60.00,Friday
8,10278030.339265589
2018,39688476.59269107
2,13, 1,13, 0, 5, 0.00,60.00,Friday
8,10032828.67655845
2018,42045253.44888206
2,13, 1,13, 0, 6, 0.00,60.00,Friday
8,10125882.55743068
2018,47582913.402586475
2,13, 1,13, 0, 7, 0.00,60.00,Friday
8,16367754.946402503
2018,65707895.35289677
2,13, 1,13, 0, 8, 0.00,60.00,Friday
8,18026417.478642244
2018,62597485.97475424
2,13, 1,13, 0, 9, 0.00,60.00,Friday
8,27344562.399792813
2018,59146393.35851446
2,13, 1,13, 0,10, 0.00,60.00,Friday
8,31511311.22491528
2018,49524207.457390964
2,13, 1,13, 0,11, 0.00,60.00,Friday
8,26950017.75822963
2018,37730520.28187271
2,13, 1,13, 0,12, 0.00,60.00,Friday
8,26514550.849498015
2018,33717445.957262285
2,13, 1,13, 0,13, 0.00,60.00,Friday
8,22463925.46437711
2018,32781578.6606194
2,13, 1,13, 0,14, 0.00,60.00,Friday
8,26742975.185342383
2018,33761175.13243947
2,13, 1,13, 0,15, 0.00,60.00,Friday
8,26877476.33732769
2018,33179041.846563436
2,13, 1,13, 0,16, 0.00,60.00,Friday
8,28435863.15259213
2018,42010822.80865322
2,13, 1,13, 0,17, 0.00,60.00,Friday
8,25068051.042493224
2018,53477967.76264645
2,13, 1,13, 0,18, 0.00,60.00,Friday
8,15530896.431628235
2018,57658326.01804006
2,13, 1,13, 0,19, 0.00,60.00,Friday
8,12191422.858529907
2018,44162824.438337095
2,13, 1,13, 0,20, 0.00,60.00,Friday
8,10850686.270612486
2018,46896627.35922334
2,13, 1,13, 0,21, 0.00,60.00,Friday
8,11073230.15490855
2018,54386824.81005576
2,13, 1,13, 0,22, 0.00,60.00,Friday
8,12462116.531977173
2018,58041054.58477603
2,13, 1,13, 0,23, 0.00,60.00,Friday
8,11375378.590522284
2018,64053336.89646986
2,13, 1,13, 0,24, 0.00,60.00,Friday
8,11420646.811938845
2018,65865663.57869025
2,14, 1,14, 0, 1, 0.00,60.00,Saturday
8,13392016.892903876
2018,90179254.80838293
2,14, 1,14, 0, 2, 0.00,60.00,Saturday
8,14830317.980878154
2018,87070014.65984793
2,14, 1,14, 0, 3, 0.00,60.00,Saturday
8,12272042.942186967
2018,56705609.440159135
2,14, 1,14, 0, 4, 0.00,60.00,Saturday
8,12518988.206839662
2018,60531374.39893733
2,14, 1,14, 0, 5, 0.00,60.00,Saturday
8,13903800.348452723
2018,60366048.58899494
2,14, 1,14, 0, 6, 0.00,60.00,Saturday
8,12705371.811717648
2018,59578360.20649277
2,14, 1,14, 0, 7, 0.00,60.00,Saturday
8,13790051.293175094
2018,55090252.049155824
2,14, 1,14, 0, 8, 0.00,60.00,Saturday
8,15114884.010318251
2018,58446868.59948066
2,14, 1,14, 0, 9, 0.00,60.00,Saturday
8,18061879.766992487
2018,54950454.87611427
2,14, 1,14, 0,10, 0.00,60.00,Saturday
8,18023684.158488467
2018,51798316.15845139
2,14, 1,14, 0,11, 0.00,60.00,Saturday
8,15870937.408262402
2018,43719939.38307017
2,14, 1,14, 0,12, 0.00,60.00,Saturday
8,14457360.944760831
2018,36815038.26753503
2,14, 1,14, 0,13, 0.00,60.00,Saturday
8,10390608.264478741
2018,43613610.682811484
2,14, 1,14, 0,14, 0.00,60.00,Saturday
8,15801931.156663822
2018,39489236.5434786
2,14, 1,14, 0,15, 0.00,60.00,Saturday
8,14500420.33126714
2018,37775259.27357247
2,14, 1,14, 0,16, 0.00,60.00,Saturday
8,14464245.433207981
2018,35973721.772646174
2,14, 1,14, 0,17, 0.00,60.00,Saturday
8,15729840.702385036
2018,36098654.13960368
2,14, 1,14, 0,18, 0.00,60.00,Saturday
8,13531789.963917915
2018,37066861.44808782
2,14, 1,14, 0,19, 0.00,60.00,Saturday
8,13593528.808968412
2018,39441237.63863706
2,14, 1,14, 0,20, 0.00,60.00,Saturday
8,13600396.897536866
2018,39738003.62253113
2,14, 1,14, 0,21, 0.00,60.00,Saturday
8,14865668.619924916
2018,39920743.00846726
2,14, 1,14, 0,22, 0.00,60.00,Saturday
8,13655630.757999253
2018,41835635.78024432
2,14, 1,14, 0,23, 0.00,60.00,Saturday
8,16676873.158478044
2018,62301780.55419032
2,14, 1,14, 0,24, 0.00,60.00,Saturday
8,15685087.051734949
2018,62832784.79875678
2,15, 1,15, 0, 1, 0.00,60.00,Sunday
8,7976602.239743493
2018,31945470.025814
2,15, 1,15, 0, 2, 0.00,60.00,Sunday
8,8265683.2078758385
2018,34923152.515370734
2,15, 1,15, 0, 3, 0.00,60.00,Sunday
8,9685577.786076676
2018,37418262.71461255
2,15, 1,15, 0, 4, 0.00,60.00,Sunday
8,8597842.705277018
2018,41686650.56096868
2,15, 1,15, 0, 5, 0.00,60.00,Sunday
8,8685242.100116521
2018,45725133.67872545
2,15, 1,15, 0, 6, 0.00,60.00,Sunday
8,9923976.903608695
2018,43910471.76820898
2,15, 1,15, 0, 7, 0.00,60.00,Sunday
8,9789872.338724356
2018,44208844.81280716
2,15, 1,15, 0, 8, 0.00,60.00,Sunday
8,9842841.859388763
2018,47652460.128045686
2,15, 1,15, 0, 9, 0.00,60.00,Sunday
8,11145673.784527142
2018,50736814.18564349
2,15, 1,15, 0,10, 0.00,60.00,Sunday
8,9856593.891775701
2018,48561786.67212569
2,15, 1,15, 0,11, 0.00,60.00,Sunday
8,6589751.56788659
2018,49939831.730766736
2,15, 1,15, 0,12, 0.00,60.00,Sunday
8,7844187.070593619
2018,49703560.599833444
2,15, 1,15, 0,13, 0.00,60.00,Sunday
8,6583707.405359635
2018,49505207.69269084
2,15, 1,15, 0,14, 0.00,60.00,Sunday
8,6587247.062245893
2018,49644637.40811163
2,15, 1,15, 0,15, 0.00,60.00,Sunday
8,6596192.410329552
2018,50101924.10119227
2,15, 1,15, 0,16, 0.00,60.00,Sunday
8,7866778.819556594
2018,50723990.61329778
2,15, 1,15, 0,17, 0.00,60.00,Sunday
8,6619459.572426039
2018,51367767.48522987
2,15, 1,15, 0,18, 0.00,60.00,Sunday
8,9873393.638649393
2018,49198833.581362434
2,15, 1,15, 0,19, 0.00,60.00,Sunday
8,11135846.475187501
2018,49300903.178635135
2,15, 1,15, 0,20, 0.00,60.00,Sunday
8,9880235.359703125
2018,49476134.00197129
2,15, 1,15, 0,21, 0.00,60.00,Sunday
8,9840402.037479917
2018,46615497.45840241
2,15, 1,15, 0,22, 0.00,60.00,Sunday
8,11100694.06329904
2018,46557355.929697715
2,15, 1,15, 0,23, 0.00,60.00,Sunday
8,9844385.765508302
2018,46682802.2805375
2,15, 1,15, 0,24, 0.00,60.00,Sunday
8,9890860.668659909
2018,49895460.441154025
2,16, 1,16, 0, 1, 0.00,60.00,Monday
8,11484924.142725809
2018,52216423.675107114
2,16, 1,16, 0, 2, 0.00,60.00,Monday
8,10227424.890987867
2018,52373166.15164095
2,16, 1,16, 0, 3, 0.00,60.00,Monday
8,10229914.375806144
2018,52491902.481975704