Program Version,EnergyPlus, Version 22.2.0-aa78da9668, YMD=2023.06.12 10:58
1,5,Environment Title[],Latitude[deg],Longitude[deg],Time Zone[],Elevation[m]
2,8,Day of Simulation[],Month[],Day of Month[],DST Indicator[1=yes 0=no],Hour[],StartMinute[],EndMinute[],DayType
3,5,Cumulative Day of Simulation[],Month[],Day of Month[],DST Indicator[1=yes 0=no],DayType  ! When Daily Report Variables Requested
4,2,Cumulative Days of Simulation[],Month[]  ! When Monthly Report Variables Requested
5,1,Cumulative Days of Simulation[] ! When Run Period Report Variables Requested
6,1,Calendar Year of Simulation[] ! When Annual Report Variables Requested
706,1,ZONE OFFICE WHOLEBUILDING - MD OFFICE A  - STORY GROUND,Zone Mean Air Temperature [C] !Hourly
707,1,ZONE OFFICE WHOLEBUILDING - MD OFFICE A END_A - STORY GROUND,Zone Mean Air Temperature [C] !Hourly
708,1,ZONE OFFICE WHOLEBUILDING - MD OFFICE A END_B - STORY GROUND,Zone Mean Air Temperature [C] !Hourly
709,1,ZONE OFFICE WHOLEBUILDING - MD OFFICE B  - STORY GROUND,Zone Mean Air Temperature [C] !Hourly
710,1,ZONE OFFICE WHOLEBUILDING - MD OFFICE B END_A - STORY GROUND,Zone Mean Air Temperature [C] !Hourly
711,1,ZONE OFFICE WHOLEBUILDING - MD OFFICE B END_B - STORY GROUND,Zone Mean Air Temperature [C] !Hourly
712,1,ZONE OFFICE WHOLEBUILDING - MD OFFICE C  - STORY GROUND,Zone Mean Air Temperature [C] !Hourly
713,1,ZONE OFFICE WHOLEBUILDING - MD OFFICE C END_A - STORY GROUND,Zone Mean Air Temperature [C] !Hourly
714,1,ZONE OFFICE WHOLEBUILDING - MD OFFICE C END_B - STORY GROUND,Zone Mean Air Temperature [C] !Hourly
8,1,Electricity:Facility [J] !TimeStep
1621,1,NaturalGas:Facility [J] !TimeStep
End of Data Dictionary
1,RUN PERIOD 1,  57.75,-152.50,  -9.00,   5.00
2,1, 1, 1, 0, 1, 0.00,60.00,Sunday
8,288839602.82281375
1621,0.0
2,1, 1, 1, 0, 1, 0.00,60.00,Sunday
706,43.27858294686621
707,29.16408860813708
708,29.25101207444433
709,65.40442548636891
710,41.820859139551246
711,41.934798367998496
712,42.647008094823704
713,28.644005100181804
714,28.734375541490067
2,1, 1, 1, 0, 2, 0.00,60.00,Sunday
8,288839602.82281375
1621,1907600.0558952666
2,1, 1, 1, 0, 2, 0.00,60.00,Sunday
706,43.02370129823195
707,28.807845037011703
708,28.893464844492392
709,65.35315862938197
710,41.57919596836163
711,41.69072818169252
712,42.41244203934056
713,28.303964143327946
714,28.392909830679162
2,1, 1, 1, 0, 3, 0.00,60.00,Sunday
8,288839602.82281375
1621,0.0
2,1, 1, 1, 0, 3, 0.00,60.00,Sunday
706,42.92285469007873
707,28.652418560764676
708,28.73642729183982
709,65.29496085087632
710,41.48813616788857
711,41.59716082377544
712,42.32309978485912
713,28.15919386770226
714,28.24637657180521
2,1, 1, 1, 0, 4, 0.00,60.00,Sunday
8,290098522.3969225
1621,1907046.254282632
2,1, 1, 1, 0, 4, 0.00,60.00,Sunday
706,43.3251247913545
707,29.135305400105963
708,29.216961257426515
709,65.27735163628788
710,41.901798351760235
711,42.007154631905124
712,42.75292423827145
713,28.66274671980254
714,28.747334112820305
2,1, 1, 1, 0, 5, 0.00,60.00,Sunday
8,288841010.2782811
1621,5214166.871065088
2,1, 1, 1, 0, 5, 0.00,60.00,Sunday
706,43.572841221246435
707,29.409655256346312
708,29.489159148466626
709,65.28821874488482
710,42.17526746695602
711,42.27420029329077
712,43.030835040242145
713,28.955869711403754
714,29.0379864954678
2,1, 1, 1, 0, 6, 0.00,60.00,Sunday
8,288841010.2782811
1621,6480066.2905729385
2,1, 1, 1, 0, 6, 0.00,60.00,Sunday
706,43.69358836388675
707,29.60638249809226
708,29.676854726836606
709,65.3134155339008
710,42.321863729850115
711,42.40786741851447
712,43.171738163443656
713,29.16917164581666
714,29.24202722751149
2,1, 1, 1, 0, 7, 0.00,60.00,Sunday
8,291212600.6128123
1621,4495909.616028104
2,1, 1, 1, 0, 7, 0.00,60.00,Sunday
706,43.73699641766096
707,29.731326394869757
708,29.80398416778679
709,65.33902923111975
710,42.377159311272074
711,42.46853202533328
712,43.230748836480046
713,29.31188332592683
714,29.38661711905985
2,1, 1, 1, 0, 8, 0.00,60.00,Sunday
8,289953734.2782811
1621,5342783.602715228
2,1, 1, 1, 0, 8, 0.00,60.00,Sunday
706,43.756735356063906
707,29.903247678203517
708,29.97413289164471
709,65.35776274634999
710,42.40981058126419
711,42.50242665293236
712,43.26480196506845
713,29.507514628684234
714,29.58014485104503
2,1, 1, 1, 0, 9, 0.00,60.00,Sunday
8,289953734.2782811
1621,5617263.044574937
2,1, 1, 1, 0, 9, 0.00,60.00,Sunday
706,43.78597453531602
707,30.155082931006085
708,30.22038274512025
709,65.37131316875781
710,42.455477528733404
711,42.54341576383993
712,43.306411555839624
713,29.78935975351
714,29.855501732468152
2,1, 1, 1, 0,10, 0.00,60.00,Sunday
8,291212656.13769794
1621,4480483.109290594
2,1, 1, 1, 0,10, 0.00,60.00,Sunday
706,43.95995335678626
707,30.917470254771743
708,30.972101071442523
709,65.38301129221517
710,42.65998904088275
711,42.74533590343673
712,43.4976414133119
713,30.607036303769878
714,30.666997400212583
2,1, 1, 1, 0,11, 0.00,60.00,Sunday
8,286670534.2782811
1621,6190993.347967874
2,1, 1, 1, 0,11, 0.00,60.00,Sunday
706,44.45946091043477
707,31.50686390541122
708,31.65216926558253
709,65.4308305895647
710,43.03326385348085
711,43.23704938858367
712,43.884565770627226
713,31.088740193381643
714,31.239018391428843
2,1, 1, 1, 0,12, 0.00,60.00,Sunday
8,286670534.2782811
1621,4800253.688885431
2,1, 1, 1, 0,12, 0.00,60.00,Sunday
706,44.7961362634995
707,31.758222139580102
708,31.963012342071448
709,65.51635353171409
710,43.06529663284421
711,43.3574171859226
712,43.89645729473634
713,31.115819174861713
714,31.345180992570544
2,1, 1, 1, 0,13, 0.00,60.00,Sunday
8,287929293.755861
1621,4533228.184669614
2,1, 1, 1, 0,13, 0.00,60.00,Sunday
706,45.04007609915384
707,31.869945758840686
708,32.0359344225757
709,65.60208585187115
710,43.164157783449234
711,43.42065620533323
712,43.98425045540608
713,31.106818911350594
714,31.312833817474502
2,1, 1, 1, 0,14, 0.00,60.00,Sunday
8,286670534.2782811
1621,6480066.2905729385
2,1, 1, 1, 0,14, 0.00,60.00,Sunday
706,45.12386744982083
707,31.75295100272335
708,31.878120990616466
709,65.6539341572127
710,43.255146917541566
711,43.43690041583347
712,44.06417493925709
713,30.93212896179191
714,31.0884604832544
2,1, 1, 1, 0,15, 0.00,60.00,Sunday
8,286670534.2782811
1621,4520675.322063706
2,1, 1, 1, 0,15, 0.00,60.00,Sunday
706,44.907953422580945
707,31.433060855148206
708,31.51085912125595
709,65.67327602927821
710,43.09277245077719
711,43.19591804237191
712,43.82931783832801
713,30.559864560528354
714,30.647249294164155
2,1, 1, 1, 0,16, 0.00,60.00,Sunday
8,287929240.2204949
1621,6190919.213697013
2,1, 1, 1, 0,16, 0.00,60.00,Sunday
706,44.699862241084574
707,31.154428512303426
708,31.22234314714609
709,65.66481370935476
710,43.02872954143223
711,43.10906739109724
712,43.7511302916605
713,30.369340275422893
714,30.432628424098976
2,1, 1, 1, 0,17, 0.00,60.00,Sunday
8,289953734.2782811
1621,4767553.928501644
2,1, 1, 1, 0,17, 0.00,60.00,Sunday
706,44.43999643741783
707,30.7888282699406
708,30.872494450992253
709,65.63364615278135
710,42.88177831288869
711,42.98474523424375
712,43.64030848043237
713,30.10694211377284
714,30.187153152588674
2,1, 1, 1, 0,18, 0.00,60.00,Sunday
8,289953734.2782811
1621,4451354.7378675705
2,1, 1, 1, 0,18, 0.00,60.00,Sunday
706,44.3156678901175
707,30.586694557450507
708,30.677394456863645
709,65.60592431105863
710,42.80122202245057
711,42.91618718427082
712,43.5829487063479
713,29.95746062817194
714,30.047757320346594
2,1, 1, 1, 0,19, 0.00,60.00,Sunday
8,291212386.6336515
1621,5816042.051116946
2,1, 1, 1, 0,19, 0.00,60.00,Sunday
706,44.26001971754081
707,30.456810714459564
708,30.54941082820553
709,65.59129858538914
710,42.76570623605709
711,42.88212591161425
712,43.55832131158296
713,29.85743771732672
714,29.951533786155778
2,1, 1, 1, 0,20, 0.00,60.00,Sunday
8,289953734.2782811
1621,5065530.2577141
2,1, 1, 1, 0,20, 0.00,60.00,Sunday
706,44.166699514777896
707,30.300308262923384
708,30.393876170656505
709,65.58880194689019
710,42.674322454728824
711,42.791908303184684
712,43.47800696783627
713,29.718192569810686
714,29.814282687489467
2,1, 1, 1, 0,21, 0.00,60.00,Sunday
8,289952326.82281375
1621,460075.52283017774
2,1, 1, 1, 0,21, 0.00,60.00,Sunday
706,44.12405491318422
707,30.227978760811716
708,30.320466426472215
709,65.58641574382229
710,42.63794442764655
711,42.75531482669042
712,43.44965167187183
713,29.66161222818031
714,29.75705257570051
2,1, 1, 1, 0,22, 0.00,60.00,Sunday
8,289952326.82281375
1621,1907019.7381321627
2,1, 1, 1, 0,22, 0.00,60.00,Sunday
706,44.099933823486666
707,30.177111003107846
708,30.268030530623147
709,65.58403515551124
710,42.62471777706075
711,42.73988593283653
712,43.44082689617772
713,29.625017766534114
714,29.719112973737243
2,1, 1, 1, 0,23, 0.00,60.00,Sunday
8,291211253.55256104
1621,0.0
2,1, 1, 1, 0,23, 0.00,60.00,Sunday
706,43.9905134806968
707,30.02345514853498
708,30.111967693343676
709,65.57562585148654
710,42.5227597801935
711,42.634994612097735
712,43.34381925375021
713,29.48358285303638
714,29.575283737342836
2,1, 1, 1, 0,24, 0.00,60.00,Sunday
8,289952326.82281375
1621,1907205.9178430801
2,1, 1, 1, 0,24, 0.00,60.00,Sunday
706,43.86454862102479
707,29.859430142173387
708,29.9462735297773
709,65.55973994551385
710,42.40246207282161
711,42.513266743901966
712,43.22783811631982
713,29.330514924669092
714,29.420494207510647
2,2, 1, 2, 0, 1, 0.00,60.00,Monday
8,291438462.994931
1621,5253264.3466713205
2,2, 1, 2, 0, 1, 0.00,60.00,Monday
706,43.827100562751134
707,29.790172293339232
708,29.876339468343183
709,65.56637037059119
710,42.373107786284415
711,42.48361239191992
712,43.202081653437176
713,29.272400706523246
714,29.361568508362577
2,2, 1, 2, 0, 2, 0.00,60.00,Monday
8,292697336.37781245
1621,6480066.2905729385
2,2, 1, 2, 0, 2, 0.00,60.00,Monday
706,43.80047459412911
707,29.733309145405943
708,29.817313381576216
709,65.56343771385079
710,42.35830658079385
711,42.46588042175696
712,43.19067328374036
713,29.228017544220815
714,29.314914943373367
2,2, 1, 2, 0, 3, 0.00,60.00,Monday
8,291438462.994931
1621,6009033.818986652
2,2, 1, 2, 0, 3, 0.00,60.00,Monday
706,43.68449273643124
707,29.571673873597184
708,29.654586755985562
709,65.55270308635046
710,42.249827002141814
711,42.356152936949115
712,43.085725253980925
713,29.076569185499203
714,29.162247755270005
2,2, 1, 2, 0, 4, 0.00,60.00,Monday
8,291438462.994931
1621,4970455.323378409
2,2, 1, 2, 0, 4, 0.00,60.00,Monday
706,43.706308985431
707,29.595339094801425
708,29.6776372561786
709,65.54451584812871
710,42.28044301260115
711,42.38642878394937
712,43.11995300625191
713,29.11155693606265
714,29.196447877653647
2,2, 1, 2, 0, 5, 0.00,60.00,Monday
8,292697282.9774015
1621,4419502.07895499
2,2, 1, 2, 0, 5, 0.00,60.00,Monday
706,43.703970314485574
707,29.571130075555743
708,29.65238259671907
709,65.54063662773086
710,42.289067796384664
711,42.39359933183141
712,43.13166978859383
713,29.098765991969714
714,29.182448011433703
2,2, 1, 2, 0, 6, 0.00,60.00,Monday
8,291438462.994931
1621,5389466.965737232
2,2, 1, 2, 0, 6, 0.00,60.00,Monday
706,43.67891721658927
707,29.558230116872288
708,29.63743348843244
709,65.53685835382274
710,42.27519227119029
711,42.37692482505106
712,43.120557488170675
713,29.09909444136989
714,29.180576234343444
2,2, 1, 2, 0, 7, 0.00,60.00,Monday
8,302110617.82574004
1621,5518570.442102445
2,2, 1, 2, 0, 7, 0.00,60.00,Monday
706,43.72315533347679
707,29.62296273528597
708,29.70068933606511
709,65.61679660832884
710,42.32967979692621
711,42.430239998841266
712,43.177636911571746
713,29.178240543415665
714,29.2580625006564
2,2, 1, 2, 0, 8, 0.00,60.00,Monday
8,324258510.9891973
1621,4484144.7667814605
2,2, 1, 2, 0, 8, 0.00,60.00,Monday
706,43.81172627635036
707,29.75128461794826
708,29.826141579958037
709,65.84637495738693
710,42.4307670565832
711,42.529415659941414
712,43.28085233293124
713,29.327711991451427
714,29.40444800131146
2,2, 1, 2, 0, 9, 0.00,60.00,Monday
8,361104853.9134463
1621,6239323.848236181
2,2, 1, 2, 0, 9, 0.00,60.00,Monday
706,41.97629101457761
707,23.212562361922053
708,23.282693759907037
709,56.74443730939894
710,38.93699069236012
711,39.07023866209653
712,41.357760042124546
713,22.780149002560634
714,22.86071333107154
2,2, 1, 2, 0,10, 0.00,60.00,Monday
8,365884569.3288508
1621,4780800.931742633
2,2, 1, 2, 0,10, 0.00,60.00,Monday
706,41.48909460506827
707,23.792072359058384
708,23.85298484220575
709,47.84973580617703
710,38.508761361554605
711,38.622576694636756
712,40.90864496071415
713,23.43029426574394
714,23.49792991417649
2,2, 1, 2, 0,11, 0.00,60.00,Monday
8,363860188.8467232
1621,5051981.829595971
2,2, 1, 2, 0,11, 0.00,60.00,Monday
706,40.995779808572664
707,23.450009960823838
708,23.632414476141363
709,42.094873809119
710,37.6202557642804
711,37.94452977978046
712,40.12601667844047
713,22.92121926319502
714,23.13786780058127
2,2, 1, 2, 0,12, 0.00,60.00,Monday
8,366850005.25365484
1621,6010791.036043622
2,2, 1, 2, 0,12, 0.00,60.00,Monday
706,40.64984302057991
707,23.52905329872255
708,23.72695882332901
709,40.32700190583016
710,37.034008892006426
711,37.386358712663856
712,39.55787826176669
713,22.85086931190684
714,23.108363769551502
2,2, 1, 2, 0,13, 0.00,60.00,Monday
8,366850005.25365484
1621,5782233.772240133
2,2, 1, 2, 0,13, 0.00,60.00,Monday
706,40.250167205180965
707,23.103650657042692
708,23.26494836021282
709,39.29258879671012
710,36.46846350383406
711,36.77549639961002
712,39.022514864287885
713,22.32182301411128
714,22.54413798160443
2,2, 1, 2, 0,14, 0.00,60.00,Monday
8,368108883.1798848
1621,5350672.26465179
2,2, 1, 2, 0,14, 0.00,60.00,Monday
706,39.86453366484857
707,22.537378051084687
708,22.66440319826971
709,38.46453215411037
710,35.988768219322424
711,36.233713702496274
712,38.563016653060416
713,21.699554943572448
714,21.87132535286044
2,2, 1, 2, 0,15, 0.00,60.00,Monday
8,366850005.25365484
1621,6480066.290572938
2,2, 1, 2, 0,15, 0.00,60.00,Monday
706,39.20279861613582
707,21.69151418916143
708,21.784275625717452
709,37.71061000502173
710,35.34858769942372
711,35.527234458613506
712,37.92624071932961
713,20.87970760694905
714,20.996668355228238
2,2, 1, 2, 0,16, 0.00,60.00,Monday
8,366850005.25365484
1621,9092430.702369742
2,2, 1, 2, 0,16, 0.00,60.00,Monday
706,38.285984125249186
707,20.44934086405703
708,20.49752810251652
709,36.99935716619724
710,34.47721635277095
711,34.6229340405192
712,37.103006090873635
713,20.30376177741464
714,20.313534948021317
2,2, 1, 2, 0,17, 0.00,60.00,Monday
8,344051301.3819413
1621,18313164.079890616
2,2, 1, 2, 0,17, 0.00,60.00,Monday
706,37.50346508613975
707,20.2796570413238
708,20.28537326454721
709,36.26521570755062
710,33.779411582071646
711,33.93945173641544
712,36.44832621665148
713,20.262913861379086
714,20.26407671796338
2,2, 1, 2, 0,18, 0.00,60.00,Monday
8,345310234.8929396
1621,26898543.252075817
2,2, 1, 2, 0,18, 0.00,60.00,Monday
706,36.73994176493233
707,20.260592907544428
708,20.261286753484846
709,35.57186877441151
710,33.054709264132335
711,33.218314193952345
712,35.77200361764042
713,20.25858982750731
714,20.25873232427373
2,2, 1, 2, 0,19, 0.00,60.00,Monday
8,344051301.3819413
1621,35333899.22737472
2,2, 1, 2, 0,19, 0.00,60.00,Monday
706,36.01396742350514
707,20.258430031605652
708,20.258517807764555
709,34.927711387644365
710,32.32098184158657
711,32.486839956646186
712,35.08698281683435
713,20.258176405980503
714,20.258195759770445
2,2, 1, 2, 0,20, 0.00,60.00,Monday
8,339507621.29569256
1621,40410242.55501692
2,2, 1, 2, 0,20, 0.00,60.00,Monday
706,35.376347824825366
707,20.258161312273643
708,20.25817466261021
709,34.31714321426668
710,31.678199154452557
711,31.84286283946997
712,34.47585424026854
713,20.258117043095552
714,20.258121954504183
2,2, 1, 2, 0,21, 0.00,60.00,Monday
8,331561123.72474676
1621,45755925.61450673
2,2, 1, 2, 0,21, 0.00,60.00,Monday
706,34.80770108822419
707,20.258034642902587
708,20.258037402277612
709,33.74460852373359
710,31.094924019383107
711,31.258896512597374
712,33.9187838771421
713,20.258025070411144
714,20.258026306267276
2,2, 1, 2, 0,22, 0.00,60.00,Monday
8,330302243.4586172
1621,50266304.0038266
2,2, 1, 2, 0,22, 0.00,60.00,Monday
706,34.186256577623865
707,20.25809048988441
708,20.258093454552405
709,33.15763733241802
710,30.470363570234063
711,30.63221604471987
712,33.3187711941746
713,20.258075258440044
714,20.258078161416687
2,2, 1, 2, 0,23, 0.00,60.00,Monday
8,330302243.4586172
1621,50173370.20246677
2,2, 1, 2, 0,23, 0.00,60.00,Monday
706,33.596089563404504
707,20.02265025902323
708,20.02304993838112
709,32.625849662206434
710,29.873070367909328
711,30.032716678563453
712,32.746971446931035
713,20.019533286068295
714,20.020437101289616
2,2, 1, 2, 0,24, 0.00,60.00,Monday
8,331561070.4028644
1621,51383693.04410925
2,2, 1, 2, 0,24, 0.00,60.00,Monday
706,33.177399707758035
707,19.977011003143748
708,19.977166049714025
709,32.117668197930634
710,29.47218923723637
711,29.627707966237413
712,32.34969685811315
713,19.975837779824325
714,19.976171077260737
2,3, 1, 3, 0, 1, 0.00,60.00,Tuesday
8,291438462.994931
1621,6480066.290572936
2,3, 1, 3, 0, 1, 0.00,60.00,Tuesday
706,33.971508763216555
707,21.355009160274022
708,21.406768280619875
709,41.98356568154264
710,31.298390286017437
711,31.441254459953957
712,33.20241596673801
713,21.07434258123849
714,21.13026585615671
2,3, 1, 3, 0, 2, 0.00,60.00,Tuesday
8,291438462.994931
1621,4561066.2181394575
2,3, 1, 3, 0, 2, 0.00,60.00,Tuesday
706,33.97513700067162
707,21.38010999770632
708,21.440406528705683
709,45.62835348271069
710,31.555420288300645
711,31.692979405236162
712,33.23274394810486
713,21.061181366149548
714,21.12542022010763
2,3, 1, 3, 0, 3, 0.00,60.00,Tuesday
8,292697423.26423335
1621,6084625.298078189
2,3, 1, 3, 0, 3, 0.00,60.00,Tuesday
706,34.15050504916725
707,21.477022163156818
708,21.546912968254272
709,47.54546009965303
710,31.8861797073862
711,32.01987248433665
712,33.44037488599521
713,21.111461141873612
714,21.18552028466168
2,3, 1, 3, 0, 4, 0.00,60.00,Tuesday
8,291438462.994931
1621,4874067.187425797
2,3, 1, 3, 0, 4, 0.00,60.00,Tuesday
706,34.41308584314939
707,21.714879161038695
708,21.787186160342145
709,48.494733994917205
710,32.260033680124906
711,32.38871114530271
712,33.72748471187043
713,21.339098982888416
714,21.415393024630298
2,3, 1, 3, 0, 5, 0.00,60.00,Tuesday
8,291438462.994931
1621,4414130.989547683
2,3, 1, 3, 0, 5, 0.00,60.00,Tuesday
706,34.487318003660505
707,21.76461443601907
708,21.838969328332812
709,49.06960132226533
710,32.4080984858261
711,32.53267066135328
712,33.82139160999417
713,21.38310566763051
714,21.46128757174244
2,3, 1, 3, 0, 6, 0.00,60.00,Tuesday
8,292697346.77408195
1621,5368869.813149955
2,3, 1, 3, 0, 6, 0.00,60.00,Tuesday
706,34.697259285766805
707,22.080404626316422
708,22.155358202913234
709,49.42939554438165
710,32.68312933426158
711,32.805375446004774
712,34.04397735368528
713,21.695865300476317
714,21.774384889575543
2,3, 1, 3, 0, 7, 0.00,60.00,Tuesday
8,302110617.82574004
1621,5539154.042729812
2,3, 1, 3, 0, 7, 0.00,60.00,Tuesday
706,34.72422704268284
707,22.168920903814666
708,22.24380089510953
709,49.879803200179154
710,32.785586963051756
711,32.902047661290126
712,34.09077332621895
713,21.788011650241287
714,21.8662159616768
2,3, 1, 3, 0, 8, 0.00,60.00,Tuesday
8,322999744.45602643
1621,4481255.425757613
2,3, 1, 3, 0, 8, 0.00,60.00,Tuesday
706,34.88290071130743
707,22.576262226241653
708,22.649895418123638
709,50.32236050090416
710,33.008327268885104
711,33.12354171096051
712,34.268925112497556
713,22.206310168042897
714,22.282967406766062
2,3, 1, 3, 0, 9, 0.00,60.00,Tuesday
8,362363806.80956364
1621,52493180.05852815
2,3, 1, 3, 0, 9, 0.00,60.00,Tuesday
706,33.12524623764978
707,20.335685061162938
708,20.33898960886037
709,48.90951189887697
710,29.8649092504618
711,29.954591115766203
712,32.39910002030239
713,20.318357332630466
714,20.322119904475823
2,3, 1, 3, 0,10, 0.00,60.00,Tuesday
8,365884569.3288508
1621,41728700.37573725
2,3, 1, 3, 0,10, 0.00,60.00,Tuesday
706,32.93004678732613
707,20.260887574950303
708,20.261036899846424
709,45.44391876565998
710,29.7932860517486
711,29.904932960374985
712,32.29244769048183
713,20.26009176482518
714,20.26026695186547
2,3, 1, 3, 0,11, 0.00,60.00,Tuesday
8,362601369.3288508
1621,41734907.10369797
2,3, 1, 3, 0,11, 0.00,60.00,Tuesday
706,32.67810190926108
707,20.25806742032662
708,20.25807133004755
709,40.85481655676856
710,29.317527614530444
711,29.529655771199938
712,31.904463166714457
713,20.25804686937847
714,20.258051383068654
2,3, 1, 3, 0,12, 0.00,60.00,Tuesday
8,366850005.25365484
1621,36318001.91872186
2,3, 1, 3, 0,12, 0.00,60.00,Tuesday
706,32.72333406997066
707,20.257973560825043
708,20.25797243042753
709,36.18704750168314
710,29.285016128445086
711,29.522585164733513
712,31.845031038909465
713,20.257976497878676
714,20.257975120189183
2,3, 1, 3, 0,13, 0.00,60.00,Tuesday
8,368108945.72730035
1621,34604717.06753389
2,3, 1, 3, 0,13, 0.00,60.00,Tuesday
706,32.56939993958616
707,20.258004209103415
708,20.258004172860304
709,32.78478492670989
710,29.161390450988417
711,29.358600682383972
712,31.731866507208125
713,20.258004334944648
714,20.258004288833998
2,3, 1, 3, 0,14, 0.00,60.00,Tuesday
8,366850005.25365484
1621,38031627.29473073
2,3, 1, 3, 0,14, 0.00,60.00,Tuesday
706,32.43734949987869
707,20.25800496909258
708,20.25800496632968
709,31.614942937470914
710,28.87277601898559
711,29.042647429167353
712,31.465802204165
713,20.258004980041328
714,20.2580049764819
2,3, 1, 3, 0,15, 0.00,60.00,Tuesday
8,366850005.25365484
1621,45171984.224078685
2,3, 1, 3, 0,15, 0.00,60.00,Tuesday
706,32.02722898931678
707,20.25800501440915
708,20.258005014002535
709,30.954736283994855
710,28.46689617599512
711,28.602161185508006
712,31.06766052017328
713,20.25800501610167
714,20.258005015573453
2,3, 1, 3, 0,16, 0.00,60.00,Tuesday
8,368108892.53444755
1621,47198277.815371245
2,3, 1, 3, 0,16, 0.00,60.00,Tuesday
706,31.62432213199354
707,20.258005019741624
708,20.2580050196488
709,30.493297747659952
710,28.117657224402585
711,28.25680744315535
712,30.755933883489895
713,20.258005020132984
714,20.25800502001188
2,3, 1, 3, 0,17, 0.00,60.00,Tuesday
8,344051301.3819413
1621,51884440.81517154
2,3, 1, 3, 0,17, 0.00,60.00,Tuesday
706,31.086246506573982
707,20.258040950834655
708,20.258042639459788
709,29.97935432945932
710,27.63325496163739
711,27.77605334847639
712,30.278682692649454
713,20.258031640025763
714,20.25803344130472
2,3, 1, 3, 0,18, 0.00,60.00,Tuesday
8,344051301.3819413
1621,53824045.14181494
2,3, 1, 3, 0,18, 0.00,60.00,Tuesday
706,30.67536766289537
707,20.25803294717034
708,20.25803448198362
709,29.559396796475795
710,27.251285369501296
711,27.394071705569594
712,29.903732440937866
713,20.258024772862264
714,20.25802641029125
2,3, 1, 3, 0,19, 0.00,60.00,Tuesday
8,345310135.3478529
1621,52857471.876861975
2,3, 1, 3, 0,19, 0.00,60.00,Tuesday
706,30.41269983798667
707,20.257988596452535
708,20.257988070168167
709,29.17373561704128
710,27.017238781100193
711,27.158057246469514
712,29.667214904261492
713,20.25799134044314
714,20.2579907932245
2,3, 1, 3, 0,20, 0.00,60.00,Tuesday
8,339507621.29569256
1621,53975469.15707652
2,3, 1, 3, 0,20, 0.00,60.00,Tuesday
706,30.115132645311327
707,20.257987900565244
708,20.25798696914765
709,28.807429121628722
710,26.7377261468557
711,26.876918751777424
712,29.385726247164357
713,20.257992856468235
714,20.25799182412657
2,3, 1, 3, 0,21, 0.00,60.00,Tuesday
8,330302243.4586172
1621,57617072.85540829
2,3, 1, 3, 0,21, 0.00,60.00,Tuesday
706,29.701585432368848
707,20.258003364176684
708,20.25800324610751
709,28.44425828672989
710,26.334100626057193
711,26.470343558578495
712,28.983271746733827
713,20.25800386854253
714,20.25800376561795
2,3, 1, 3, 0,22, 0.00,60.00,Tuesday
8,331561187.4868679
1621,58661860.69655374
2,3, 1, 3, 0,22, 0.00,60.00,Tuesday
706,29.36055979015279
707,20.257993519282508
708,20.257992303465436
709,28.099059238473238
710,26.010916551863318
711,26.14419164089522
712,28.656035335670186
713,20.258000395799257
714,20.25799899803148
2,3, 1, 3, 0,23, 0.00,60.00,Tuesday
8,330302243.4586172
1621,57408902.43861571
2,3, 1, 3, 0,23, 0.00,60.00,Tuesday
706,28.981851427499755
707,20.03060387787996
708,20.03092896711584
709,27.77266874298013
710,25.636219447477686
711,25.769884646675436
712,28.28583153342055
713,20.0277781640226
714,20.02862388101821
2,3, 1, 3, 0,24, 0.00,60.00,Tuesday
8,330302243.4586172
1621,64537415.86372714
2,3, 1, 3, 0,24, 0.00,60.00,Tuesday
706,28.505311538201802
707,19.980219687813904
708,19.980370642535174
709,27.45960890462393
710,25.154487779151633
711,25.287119348338486
712,27.820498383462777
713,19.978960189616323
714,19.979327217700224
2,4, 1, 4, 0, 1, 0.00,60.00,Wednesday
8,292762709.9809904
1621,10614143.125169061
2,4, 1, 4, 0, 1, 0.00,60.00,Wednesday
706,29.27650257567719
707,20.079257920260467
708,20.079550431538266
709,35.79084079863466
710,26.820181374702415
711,26.94321372645234
712,28.655435589791008
713,20.079280570075113
714,20.079281467033194
2,4, 1, 4, 0, 2, 0.00,60.00,Wednesday
8,291489231.1116795
1621,7768006.872456282
2,4, 1, 4, 0, 2, 0.00,60.00,Wednesday
706,29.51673051191136
707,20.079299422387034
708,20.07929945633258
709,38.86475538528064
710,27.284507175199632
711,27.402630899672605
712,28.91679406388506
713,20.07929942321827
714,20.079299423895787
2,4, 1, 4, 0, 3, 0.00,60.00,Wednesday
8,291534398.079599
1621,12116036.894103093
2,4, 1, 4, 0, 3, 0.00,60.00,Wednesday
706,29.687576339357655
707,20.257714837855954
708,20.257732857458134
709,40.522519162267514
710,27.64740926696301
711,27.761571947200665
712,29.118585404375143
713,20.257629950292422
714,20.257648012871023
2,4, 1, 4, 0, 4, 0.00,60.00,Wednesday
8,292786460.04989696
1621,10498550.422972161
2,4, 1, 4, 0, 4, 0.00,60.00,Wednesday
706,29.860111015318456
707,20.25800439732657
708,20.258004487312707
709,41.37260437984087
710,27.91561354123848
711,28.026139451684383
712,29.30448893136054
713,20.258003873265476
714,20.25800399848052
2,4, 1, 4, 0, 5, 0.00,60.00,Wednesday
8,291521717.68079853
1621,9661607.272380708
2,4, 1, 4, 0, 5, 0.00,60.00,Wednesday
706,29.951851415648463
707,20.258005017971108
708,20.25800501867733
709,41.867329768799976
710,28.083542327503253
711,28.19031791858181
712,29.41432184470841
713,20.2580050126615
714,20.25800501409762
2,4, 1, 4, 0, 6, 0.00,60.00,Wednesday
8,291508338.4637697
1621,9759757.95678401
2,4, 1, 4, 0, 6, 0.00,60.00,Wednesday
706,30.039325926331664
707,20.258011844959874
708,20.25801107609648
709,42.36971970212341
710,28.254648270107445
711,28.357833512947792
712,29.5202301861349
713,20.2580156431815
714,20.258014800335836
2,4, 1, 4, 0, 7, 0.00,60.00,Wednesday
8,302130911.8476433
1621,6844551.364180306
2,4, 1, 4, 0, 7, 0.00,60.00,Wednesday
706,30.249149369461385
707,20.230620629931316
708,20.22826356517823
709,42.733868743371346
710,28.525780627344954
711,28.62610145194705
712,29.74318550227046
713,20.258030823698427
714,20.258026642680527
2,4, 1, 4, 0, 8, 0.00,60.00,Wednesday
8,324258691.9638163
1621,4481205.004769981
2,4, 1, 4, 0, 8, 0.00,60.00,Wednesday
706,30.42260826413016
707,20.500179120758922
708,20.522365945547936
709,43.24250663306509
710,28.79543156651907
711,28.890508235912932
712,29.94524789065924
713,20.327180828408096
714,20.365586757328202
2,4, 1, 4, 0, 9, 0.00,60.00,Wednesday
8,361104853.9134463
1621,59720613.6964253
2,4, 1, 4, 0, 9, 0.00,60.00,Wednesday
706,29.22730329708436
707,20.271298631055945
708,20.272696759993874
709,42.274133303132714
710,26.4342434145345
711,26.54059730853439
712,28.706283790605976
713,20.261495012877134
714,20.26356038702179
2,4, 1, 4, 0,10, 0.00,60.00,Wednesday
8,365884569.3288508
1621,45121347.56146757
2,4, 1, 4, 0,10, 0.00,60.00,Wednesday
706,29.297840126175146
707,20.258931926118947
708,20.25903725367965
709,39.84626266614203
710,26.592284745654858
711,26.694740447973608
712,28.789070501104078
713,20.25823360906088
714,20.25837546247606
2,4, 1, 4, 0,11, 0.00,60.00,Wednesday
8,363860317.9188058
1621,37579907.93344001
2,4, 1, 4, 0,11, 0.00,60.00,Wednesday
706,29.475604610523312
707,20.258053924891158
708,20.25805999489248
709,36.879623684394595
710,26.62198120222206
711,26.805516904553066
712,28.86549597547446
713,20.258016259741563
714,20.258023608642738
2,4, 1, 4, 0,12, 0.00,60.00,Wednesday
8,366850005.25365484
1621,28706224.73451615
2,4, 1, 4, 0,12, 0.00,60.00,Wednesday
706,29.838184686782515
707,20.258007034905752
708,20.258007298539233
709,33.5466387897476
710,26.992343438277757
711,27.171862018466225
712,29.20664632332664
713,20.258005453840767
714,20.258005748109504
2,4, 1, 4, 0,13, 0.00,60.00,Wednesday
8,366850005.25365484
1621,30193713.648702055
2,4, 1, 4, 0,13, 0.00,60.00,Wednesday
706,29.802357332877424
707,20.25800508789274
708,20.258005097171804
709,30.094211508997013
710,26.91503549384303
711,27.072313795031157
712,29.17209444369413
713,20.258005034509566
714,20.25800504401219
2,4, 1, 4, 0,14, 0.00,60.00,Wednesday
8,368108939.4747787
1621,35707592.69289738
2,4, 1, 4, 0,14, 0.00,60.00,Wednesday
706,29.541784706292123
707,20.258005023855763
708,20.258005024261877
709,28.275999676288592
710,26.635465568902852
711,26.771879847654894
712,28.940076567130596
713,20.25800502162146
714,20.25800502200317
2,4, 1, 4, 0,15, 0.00,60.00,Wednesday
8,366850005.25365484
1621,46599375.28062686
2,4, 1, 4, 0,15, 0.00,60.00,Wednesday
706,29.013196952841277
707,20.25800502149516
708,20.25800502155543
709,27.639615645056725
710,26.081398458143305
711,26.2159320365231
712,28.433133405914962
713,20.25800502117469
714,20.258005021227667
2,4, 1, 4, 0,16, 0.00,60.00,Wednesday
8,366850005.25365484
1621,52716419.7348722
2,4, 1, 4, 0,16, 0.00,60.00,Wednesday
706,28.525494920563617
707,20.258005021193476
708,20.258005021207516
709,27.290975913139576
710,25.56718827135142
711,25.70029156920998
712,27.957686201551766
713,20.258005021120503
714,20.25800502113224
2,4, 1, 4, 0,17, 0.00,60.00,Wednesday
8,345310252.3266275
1621,56683940.226033114
2,4, 1, 4, 0,17, 0.00,60.00,Wednesday
706,28.009311864891117
707,20.25802010362912
708,20.258023313937237
709,26.878208650427425
710,25.064141999299906
711,25.19555221520067
712,27.451977589576057
713,20.258007974808777
714,20.25801136311495
2,4, 1, 4, 0,18, 0.00,60.00,Wednesday
8,344051301.3819413
1621,60299411.91134552