Program Version,EnergyPlus, Version 22.2.0-aa78da9668, YMD=2023.04.03 14:43
1,5,Environment Title[],Latitude[deg],Longitude[deg],Time Zone[],Elevation[m]
2,8,Day of Simulation[],Month[],Day of Month[],DST Indicator[1=yes 0=no],Hour[],StartMinute[],EndMinute[],DayType
3,5,Cumulative Day of Simulation[],Month[],Day of Month[],DST Indicator[1=yes 0=no],DayType  ! When Daily Report Variables Requested
4,2,Cumulative Days of Simulation[],Month[]  ! When Monthly Report Variables Requested
5,1,Cumulative Days of Simulation[] ! When Run Period Report Variables Requested
6,1,Calendar Year of Simulation[] ! When Annual Report Variables Requested
8,1,Electricity:Facility [J] !TimeStep
2268,1,NaturalGas:Facility [J] !TimeStep
End of Data Dictionary
1,KODIAK ANN CLG .4% CONDNS DB=>MWB HVAC Sizing Pass 1,  57.75,-152.49,  -9.00,  34.00
2,1, 8,21, 0, 1, 0.00,10.00,SummerDesignDay
8,6152393.653185269
2268,0.0
2,1, 8,21, 0, 1,10.00,20.00,SummerDesignDay
8,6151393.070609666
2268,0.0
2,1, 8,21, 0, 1,20.00,30.00,SummerDesignDay
8,6150408.532822381
2268,0.0
2,1, 8,21, 0, 1,30.00,40.00,SummerDesignDay
8,6149441.724294067
2268,0.0
2,1, 8,21, 0, 1,40.00,50.00,SummerDesignDay
8,6148495.805291934
2268,0.0
2,1, 8,21, 0, 1,50.00,60.00,SummerDesignDay
8,6147577.255426638
2268,0.0
2,1, 8,21, 0, 2, 0.00,10.00,SummerDesignDay
8,6146791.028201611
2268,0.0
2,1, 8,21, 0, 2,10.00,20.00,SummerDesignDay
8,6145962.573127996
2268,0.0
2,1, 8,21, 0, 2,20.00,30.00,SummerDesignDay
8,6145112.884852861
2268,0.0
2,1, 8,21, 0, 2,30.00,40.00,SummerDesignDay
8,6144258.37644735
2268,0.0
2,1, 8,21, 0, 2,40.00,50.00,SummerDesignDay
8,6143401.871802998
2268,0.0
2,1, 8,21, 0, 2,50.00,60.00,SummerDesignDay
8,6142545.813482597
2268,0.0
2,1, 8,21, 0, 3, 0.00,10.00,SummerDesignDay
8,6141730.511243351
2268,0.0
2,1, 8,21, 0, 3,10.00,20.00,SummerDesignDay
8,6140922.186952341
2268,0.0
2,1, 8,21, 0, 3,20.00,30.00,SummerDesignDay
8,6140120.7905631345
2268,0.0
2,1, 8,21, 0, 3,30.00,40.00,SummerDesignDay
8,6139328.174520969
2268,0.0
2,1, 8,21, 0, 3,40.00,50.00,SummerDesignDay
8,6138548.809025038
2268,0.0
2,1, 8,21, 0, 3,50.00,60.00,SummerDesignDay
8,6137779.672872808
2268,0.0
2,1, 8,21, 0, 4, 0.00,10.00,SummerDesignDay
8,6136989.325766336
2268,0.0
2,1, 8,21, 0, 4,10.00,20.00,SummerDesignDay
8,6136197.019745496
2268,0.0
2,1, 8,21, 0, 4,20.00,30.00,SummerDesignDay
8,6135403.259921366
2268,0.0
2,1, 8,21, 0, 4,30.00,40.00,SummerDesignDay
8,6134608.718079069
2268,0.0
2,1, 8,21, 0, 4,40.00,50.00,SummerDesignDay
8,6133813.85563854
2268,0.0
2,1, 8,21, 0, 4,50.00,60.00,SummerDesignDay
8,6133018.946032032
2268,0.0
2,1, 8,21, 0, 5, 0.00,10.00,SummerDesignDay
8,6132261.618391199
2268,0.0
2,1, 8,21, 0, 5,10.00,20.00,SummerDesignDay
8,6131508.084243435
2268,0.0
2,1, 8,21, 0, 5,20.00,30.00,SummerDesignDay
8,6130756.87765764
2268,0.0
2,1, 8,21, 0, 5,30.00,40.00,SummerDesignDay
8,6130007.98648934
2268,0.0
2,1, 8,21, 0, 5,40.00,50.00,SummerDesignDay
8,6129261.584740669
2268,0.0
2,1, 8,21, 0, 5,50.00,60.00,SummerDesignDay
8,7383234.165130131
2268,0.0
2,1, 8,21, 0, 6, 0.00,10.00,SummerDesignDay
8,6127924.498194447
2268,0.0
2,1, 8,21, 0, 6,10.00,20.00,SummerDesignDay
8,6127348.640233978
2268,0.0
2,1, 8,21, 0, 6,20.00,30.00,SummerDesignDay
8,6126783.998046074
2268,0.0
2,1, 8,21, 0, 6,30.00,40.00,SummerDesignDay
8,6126230.520792973
2268,0.0
2,1, 8,21, 0, 6,40.00,50.00,SummerDesignDay
8,6125688.973515314
2268,0.0
2,1, 8,21, 0, 6,50.00,60.00,SummerDesignDay
8,5764158.985555775
2268,0.0
2,1, 8,21, 0, 7, 0.00,10.00,SummerDesignDay
8,5805892.283046003
2268,0.0
2,1, 8,21, 0, 7,10.00,20.00,SummerDesignDay
8,5770142.288188824
2268,0.0
2,1, 8,21, 0, 7,20.00,30.00,SummerDesignDay
8,5791906.157484996
2268,0.0
2,1, 8,21, 0, 7,30.00,40.00,SummerDesignDay
8,5790176.939964478
2268,0.0
2,1, 8,21, 0, 7,40.00,50.00,SummerDesignDay
8,5792055.644795234
2268,0.0
2,1, 8,21, 0, 7,50.00,60.00,SummerDesignDay
8,5794999.174161277
2268,0.0
2,1, 8,21, 0, 8, 0.00,10.00,SummerDesignDay
8,5952176.771341181
2268,0.0
2,1, 8,21, 0, 8,10.00,20.00,SummerDesignDay
8,5825823.00149811
2268,0.0
2,1, 8,21, 0, 8,20.00,30.00,SummerDesignDay
8,5921255.759401229
2268,0.0
2,1, 8,21, 0, 8,30.00,40.00,SummerDesignDay
8,5904354.646307854
2268,0.0
2,1, 8,21, 0, 8,40.00,50.00,SummerDesignDay
8,5902147.123317172
2268,0.0
2,1, 8,21, 0, 8,50.00,60.00,SummerDesignDay
8,5903050.544170049
2268,0.0
2,1, 8,21, 0, 9, 0.00,10.00,SummerDesignDay
8,6644307.633789476
2268,0.0
2,1, 8,21, 0, 9,10.00,20.00,SummerDesignDay
8,6524010.875312269
2268,0.0
2,1, 8,21, 0, 9,20.00,30.00,SummerDesignDay
8,6621217.3763047885
2268,0.0
2,1, 8,21, 0, 9,30.00,40.00,SummerDesignDay
8,6602599.631270296
2268,0.0
2,1, 8,21, 0, 9,40.00,50.00,SummerDesignDay
8,6597813.428511357
2268,0.0
2,1, 8,21, 0, 9,50.00,60.00,SummerDesignDay
8,6598951.373185481
2268,0.0
2,1, 8,21, 0,10, 0.00,10.00,SummerDesignDay
8,6601563.974177023
2268,0.0
2,1, 8,21, 0,10,10.00,20.00,SummerDesignDay
8,6605619.436990462
2268,0.0
2,1, 8,21, 0,10,20.00,30.00,SummerDesignDay
8,6610864.321023593
2268,0.0
2,1, 8,21, 0,10,30.00,40.00,SummerDesignDay
8,6617095.689286152
2268,0.0
2,1, 8,21, 0,10,40.00,50.00,SummerDesignDay
8,7878857.813084065
2268,0.0
2,1, 8,21, 0,10,50.00,60.00,SummerDesignDay
8,6631897.97517287
2268,0.0
2,1, 8,21, 0,11, 0.00,10.00,SummerDesignDay
8,6639863.766431606
2268,0.0
2,1, 8,21, 0,11,10.00,20.00,SummerDesignDay
8,6650661.41701597
2268,0.0
2,1, 8,21, 0,11,20.00,30.00,SummerDesignDay
8,6679853.612964348
2268,0.0
2,1, 8,21, 0,11,30.00,40.00,SummerDesignDay
8,6686124.647049158
2268,0.0
2,1, 8,21, 0,11,40.00,50.00,SummerDesignDay
8,6702808.089890372
2268,0.0
2,1, 8,21, 0,11,50.00,60.00,SummerDesignDay
8,6717257.099817508
2268,0.0
2,1, 8,21, 0,12, 0.00,10.00,SummerDesignDay
8,6739775.067363269
2268,0.0
2,1, 8,21, 0,12,10.00,20.00,SummerDesignDay
8,6751043.351481825
2268,0.0
2,1, 8,21, 0,12,20.00,30.00,SummerDesignDay
8,6766234.139239936
2268,0.0
2,1, 8,21, 0,12,30.00,40.00,SummerDesignDay
8,6780051.547601406
2268,0.0
2,1, 8,21, 0,12,40.00,50.00,SummerDesignDay
8,6802245.246952672
2268,0.0
2,1, 8,21, 0,12,50.00,60.00,SummerDesignDay
8,6814922.505629046
2268,0.0
2,1, 8,21, 0,13, 0.00,10.00,SummerDesignDay
8,6316027.727816859
2268,0.0
2,1, 8,21, 0,13,10.00,20.00,SummerDesignDay
8,6328048.015943454
2268,0.0
2,1, 8,21, 0,13,20.00,30.00,SummerDesignDay
8,6338983.199658398
2268,0.0
2,1, 8,21, 0,13,30.00,40.00,SummerDesignDay
8,6349272.81486418
2268,0.0
2,1, 8,21, 0,13,40.00,50.00,SummerDesignDay
8,6359121.404373577
2268,0.0
2,1, 8,21, 0,13,50.00,60.00,SummerDesignDay
8,6368842.4844987225
2268,0.0
2,1, 8,21, 0,14, 0.00,10.00,SummerDesignDay
8,6889849.009507621
2268,0.0
2,1, 8,21, 0,14,10.00,20.00,SummerDesignDay
8,6898475.721840337
2268,0.0
2,1, 8,21, 0,14,20.00,30.00,SummerDesignDay
8,6907102.1026642695
2268,0.0
2,1, 8,21, 0,14,30.00,40.00,SummerDesignDay
8,6915505.301476139
2268,0.0
2,1, 8,21, 0,14,40.00,50.00,SummerDesignDay
8,6923585.798059761
2268,0.0
2,1, 8,21, 0,14,50.00,60.00,SummerDesignDay
8,6931266.875492297
2268,0.0
2,1, 8,21, 0,15, 0.00,10.00,SummerDesignDay
8,6935645.34033219
2268,0.0
2,1, 8,21, 0,15,10.00,20.00,SummerDesignDay
8,6939449.439556221
2268,0.0
2,1, 8,21, 0,15,20.00,30.00,SummerDesignDay
8,6942635.677133073
2268,0.0
2,1, 8,21, 0,15,30.00,40.00,SummerDesignDay
8,8199863.590149912
2268,0.0
2,1, 8,21, 0,15,40.00,50.00,SummerDesignDay
8,6947038.139302957
2268,0.0
2,1, 8,21, 0,15,50.00,60.00,SummerDesignDay
8,6948213.601040064
2268,0.0
2,1, 8,21, 0,16, 0.00,10.00,SummerDesignDay
8,6945254.534345393
2268,0.0
2,1, 8,21, 0,16,10.00,20.00,SummerDesignDay
8,6941492.274277874
2268,0.0
2,1, 8,21, 0,16,20.00,30.00,SummerDesignDay
8,6936947.291141837
2268,0.0
2,1, 8,21, 0,16,30.00,40.00,SummerDesignDay
8,6931620.389048319
2268,0.0
2,1, 8,21, 0,16,40.00,50.00,SummerDesignDay
8,6925553.340623824
2268,0.0
2,1, 8,21, 0,16,50.00,60.00,SummerDesignDay
8,6918637.55066843
2268,0.0
2,1, 8,21, 0,17, 0.00,10.00,SummerDesignDay
8,6909834.846984158
2268,0.0
2,1, 8,21, 0,17,10.00,20.00,SummerDesignDay
8,6900310.595592731
2268,0.0
2,1, 8,21, 0,17,20.00,30.00,SummerDesignDay
8,6890056.9473594
2268,0.0
2,1, 8,21, 0,17,30.00,40.00,SummerDesignDay
8,6879095.552283815
2268,0.0
2,1, 8,21, 0,17,40.00,50.00,SummerDesignDay
8,6867431.360493646
2268,0.0
2,1, 8,21, 0,17,50.00,60.00,SummerDesignDay
8,6855107.958807487
2268,0.0
2,1, 8,21, 0,18, 0.00,10.00,SummerDesignDay
8,6327106.929681467
2268,0.0
2,1, 8,21, 0,18,10.00,20.00,SummerDesignDay
8,6305037.332160674
2268,0.0
2,1, 8,21, 0,18,20.00,30.00,SummerDesignDay
8,6302442.435129252
2268,0.0
2,1, 8,21, 0,18,30.00,40.00,SummerDesignDay
8,6278938.864701821
2268,0.0
2,1, 8,21, 0,18,40.00,50.00,SummerDesignDay
8,6265413.394039496
2268,0.0
2,1, 8,21, 0,18,50.00,60.00,SummerDesignDay
8,6251711.619300291
2268,0.0
2,1, 8,21, 0,19, 0.00,10.00,SummerDesignDay
8,5858074.638727159
2268,0.0
2,1, 8,21, 0,19,10.00,20.00,SummerDesignDay
8,5848229.73909168
2268,0.0
2,1, 8,21, 0,19,20.00,30.00,SummerDesignDay
8,5839842.470135115
2268,0.0
2,1, 8,21, 0,19,30.00,40.00,SummerDesignDay
8,5835217.996318708
2268,0.0
2,1, 8,21, 0,19,40.00,50.00,SummerDesignDay
8,5833113.756441332
2268,0.0
2,1, 8,21, 0,19,50.00,60.00,SummerDesignDay
8,5831132.004285796
2268,0.0
2,1, 8,21, 0,20, 0.00,10.00,SummerDesignDay
8,5829509.399812287
2268,0.0
2,1, 8,21, 0,20,10.00,20.00,SummerDesignDay
8,5827731.1069450565
2268,0.0
2,1, 8,21, 0,20,20.00,30.00,SummerDesignDay
8,5825805.5712530585
2268,0.0
2,1, 8,21, 0,20,30.00,40.00,SummerDesignDay
8,7079433.701152082
2268,0.0
2,1, 8,21, 0,20,40.00,50.00,SummerDesignDay
8,5823677.340250239
2268,0.0
2,1, 8,21, 0,20,50.00,60.00,SummerDesignDay
8,5822522.632789292
2268,0.0
2,1, 8,21, 0,21, 0.00,10.00,SummerDesignDay
8,5821437.505159773
2268,0.0
2,1, 8,21, 0,21,10.00,20.00,SummerDesignDay
8,5820067.459996191
2268,0.0
2,1, 8,21, 0,21,20.00,30.00,SummerDesignDay
8,5818538.879844897
2268,0.0
2,1, 8,21, 0,21,30.00,40.00,SummerDesignDay
8,6363967.451577015
2268,0.0
2,1, 8,21, 0,21,40.00,50.00,SummerDesignDay
8,6362353.717853837
2268,0.0
2,1, 8,21, 0,21,50.00,60.00,SummerDesignDay
8,6360937.792485824
2268,0.0
2,1, 8,21, 0,22, 0.00,10.00,SummerDesignDay
8,6359581.9658614
2268,0.0
2,1, 8,21, 0,22,10.00,20.00,SummerDesignDay
8,6358252.091593523
2268,0.0
2,1, 8,21, 0,22,20.00,30.00,SummerDesignDay
8,6356937.368070785
2268,0.0
2,1, 8,21, 0,22,30.00,40.00,SummerDesignDay
8,6355635.006973463
2268,0.0
2,1, 8,21, 0,22,40.00,50.00,SummerDesignDay
8,6354344.686329751
2268,0.0
2,1, 8,21, 0,22,50.00,60.00,SummerDesignDay
8,6353067.02587696
2268,0.0
2,1, 8,21, 0,23, 0.00,10.00,SummerDesignDay
8,6351887.812448004
2268,0.0
2,1, 8,21, 0,23,10.00,20.00,SummerDesignDay
8,6350732.264225596
2268,0.0
2,1, 8,21, 0,23,20.00,30.00,SummerDesignDay
8,6349614.302268646
2268,0.0
2,1, 8,21, 0,23,30.00,40.00,SummerDesignDay
8,6348469.691003444
2268,0.0
2,1, 8,21, 0,23,40.00,50.00,SummerDesignDay
8,6347329.011384799
2268,0.0
2,1, 8,21, 0,23,50.00,60.00,SummerDesignDay
8,6346194.450966969
2268,0.0
2,1, 8,21, 0,24, 0.00,10.00,SummerDesignDay
8,6345067.48571684
2268,0.0
2,1, 8,21, 0,24,10.00,20.00,SummerDesignDay
8,6343949.274821526
2268,0.0
2,1, 8,21, 0,24,20.00,30.00,SummerDesignDay
8,6342840.6361703705
2268,0.0
2,1, 8,21, 0,24,30.00,40.00,SummerDesignDay
8,6341742.201246471
2268,0.0
2,1, 8,21, 0,24,40.00,50.00,SummerDesignDay
8,6340659.239193964
2268,0.0
2,1, 8,21, 0,24,50.00,60.00,SummerDesignDay
8,6339586.933492879
2268,0.0
1,KODIAK ANN CLG .4% CONDNS WB=>MDB HVAC Sizing Pass 1,  57.75,-152.49,  -9.00,  34.00
2,1, 8,21, 0, 1, 0.00,10.00,SummerDesignDay
8,6126401.091807238
2268,0.0
2,1, 8,21, 0, 1,10.00,20.00,SummerDesignDay
8,6125169.339082171
2268,0.0
2,1, 8,21, 0, 1,20.00,30.00,SummerDesignDay
8,6123941.555602595
2268,0.0
2,1, 8,21, 0, 1,30.00,40.00,SummerDesignDay
8,6122717.714151934
2268,0.0
2,1, 8,21, 0, 1,40.00,50.00,SummerDesignDay
8,6121497.906872284
2268,0.0
2,1, 8,21, 0, 1,50.00,60.00,SummerDesignDay
8,6120282.057322651
2268,0.0
2,1, 8,21, 0, 2, 0.00,10.00,SummerDesignDay
8,6119148.260323411
2268,0.0
2,1, 8,21, 0, 2,10.00,20.00,SummerDesignDay
8,6118026.259426313
2268,0.0
2,1, 8,21, 0, 2,20.00,30.00,SummerDesignDay
8,6116912.179868015
2268,0.0
2,1, 8,21, 0, 2,30.00,40.00,SummerDesignDay
8,6116294.500952773
2268,0.0
2,1, 8,21, 0, 2,40.00,50.00,SummerDesignDay
8,6116294.500952773
2268,0.0
2,1, 8,21, 0, 2,50.00,60.00,SummerDesignDay
8,6116294.500952773
2268,0.0
2,1, 8,21, 0, 3, 0.00,10.00,SummerDesignDay
8,6116294.500952773
2268,0.0
2,1, 8,21, 0, 3,10.00,20.00,SummerDesignDay
8,6116294.500952773
2268,0.0
2,1, 8,21, 0, 3,20.00,30.00,SummerDesignDay
8,6116294.500952773
2268,0.0
2,1, 8,21, 0, 3,30.00,40.00,SummerDesignDay
8,6116294.500952773
2268,0.0
2,1, 8,21, 0, 3,40.00,50.00,SummerDesignDay
8,6116294.500952773
2268,0.0
2,1, 8,21, 0, 3,50.00,60.00,SummerDesignDay
8,6116294.500952773
2268,0.0
2,1, 8,21, 0, 4, 0.00,10.00,SummerDesignDay
8,6116294.500952773
2268,0.0
2,1, 8,21, 0, 4,10.00,20.00,SummerDesignDay
8,6116294.500952773
2268,0.0
2,1, 8,21, 0, 4,20.00,30.00,SummerDesignDay
8,6116294.500952773
2268,0.0
2,1, 8,21, 0, 4,30.00,40.00,SummerDesignDay
8,6116294.500952773
2268,0.0
2,1, 8,21, 0, 4,40.00,50.00,SummerDesignDay
8,6116294.500952773
2268,0.0
2,1, 8,21, 0, 4,50.00,60.00,SummerDesignDay
8,6116294.500952773
2268,0.0
2,1, 8,21, 0, 5, 0.00,10.00,SummerDesignDay
8,6116294.500952773
2268,0.0
2,1, 8,21, 0, 5,10.00,20.00,SummerDesignDay
8,6116294.500952773
2268,0.0
2,1, 8,21, 0, 5,20.00,30.00,SummerDesignDay
8,6116294.500952773
2268,0.0
2,1, 8,21, 0, 5,30.00,40.00,SummerDesignDay
8,6116294.500952773
2268,0.0
2,1, 8,21, 0, 5,40.00,50.00,SummerDesignDay
8,6116294.500952773
2268,0.0
2,1, 8,21, 0, 5,50.00,60.00,SummerDesignDay
8,7371010.927618109
2268,0.0
2,1, 8,21, 0, 6, 0.00,10.00,SummerDesignDay
8,6116294.500952773
2268,0.0
2,1, 8,21, 0, 6,10.00,20.00,SummerDesignDay
8,6116294.500952773
2268,0.0
2,1, 8,21, 0, 6,20.00,30.00,SummerDesignDay
8,6116294.500952773
2268,0.0
2,1, 8,21, 0, 6,30.00,40.00,SummerDesignDay
8,6116294.500952773
2268,0.0
2,1, 8,21, 0, 6,40.00,50.00,SummerDesignDay
8,6116294.500952773
2268,0.0
2,1, 8,21, 0, 6,50.00,60.00,SummerDesignDay
8,5754548.500952773
2268,0.0
2,1, 8,21, 0, 7, 0.00,10.00,SummerDesignDay
8,5754548.500952773
2268,0.0
2,1, 8,21, 0, 7,10.00,20.00,SummerDesignDay
8,5754548.500952773
2268,0.0
2,1, 8,21, 0, 7,20.00,30.00,SummerDesignDay
8,5754548.500952773
2268,0.0
2,1, 8,21, 0, 7,30.00,40.00,SummerDesignDay
8,5754548.500952773
2268,0.0
2,1, 8,21, 0, 7,40.00,50.00,SummerDesignDay
8,5754548.500952773
2268,0.0
2,1, 8,21, 0, 7,50.00,60.00,SummerDesignDay
8,5754548.500952773
2268,0.0
2,1, 8,21, 0, 8, 0.00,10.00,SummerDesignDay
8,5906310.217964014
2268,0.0
2,1, 8,21, 0, 8,10.00,20.00,SummerDesignDay
8,5773642.987689023
2268,0.0
2,1, 8,21, 0, 8,20.00,30.00,SummerDesignDay
8,5855862.127927964
2268,0.0
2,1, 8,21, 0, 8,30.00,40.00,SummerDesignDay
8,5840478.838975799
2268,0.0
2,1, 8,21, 0, 8,40.00,50.00,SummerDesignDay
8,5837362.486384335
2268,0.0
2,1, 8,21, 0, 8,50.00,60.00,SummerDesignDay
8,5839483.030478137
2268,0.0
2,1, 8,21, 0, 9, 0.00,10.00,SummerDesignDay
8,6555987.412873945
2268,0.0
2,1, 8,21, 0, 9,10.00,20.00,SummerDesignDay
8,6441697.709670949
2268,0.0
2,1, 8,21, 0, 9,20.00,30.00,SummerDesignDay
8,6541839.539986983
2268,0.0
2,1, 8,21, 0, 9,30.00,40.00,SummerDesignDay
8,6523288.859562385
2268,0.0
2,1, 8,21, 0, 9,40.00,50.00,SummerDesignDay
8,6520353.963680052
2268,0.0
2,1, 8,21, 0, 9,50.00,60.00,SummerDesignDay
8,6522311.299511507
2268,0.0
2,1, 8,21, 0,10, 0.00,10.00,SummerDesignDay
8,6525534.846502033
2268,0.0
2,1, 8,21, 0,10,10.00,20.00,SummerDesignDay
8,6529995.651604255
2268,0.0
2,1, 8,21, 0,10,20.00,30.00,SummerDesignDay
8,6535435.26934575
2268,0.0
2,1, 8,21, 0,10,30.00,40.00,SummerDesignDay
8,6541639.688838195
2268,0.0
2,1, 8,21, 0,10,40.00,50.00,SummerDesignDay
8,7803079.394653166
2268,0.0
2,1, 8,21, 0,10,50.00,60.00,SummerDesignDay
8,6555699.543661603
2268,0.0
2,1, 8,21, 0,11, 0.00,10.00,SummerDesignDay
8,6563405.355911725
2268,0.0
2,1, 8,21, 0,11,10.00,20.00,SummerDesignDay
8,6571450.364750787
2268,0.0
2,1, 8,21, 0,11,20.00,30.00,SummerDesignDay
8,6579827.710176482
2268,0.0
2,1, 8,21, 0,11,30.00,40.00,SummerDesignDay
8,6588267.225046514
2268,0.0
2,1, 8,21, 0,11,40.00,50.00,SummerDesignDay
8,6596956.7028897945
2268,0.0
2,1, 8,21, 0,11,50.00,60.00,SummerDesignDay
8,6606008.281842225
2268,0.0
2,1, 8,21, 0,12, 0.00,10.00,SummerDesignDay
8,6614325.272167905
2268,0.0
2,1, 8,21, 0,12,10.00,20.00,SummerDesignDay
8,6622675.634617327
2268,0.0
2,1, 8,21, 0,12,20.00,30.00,SummerDesignDay
8,6631010.836744936
2268,0.0
2,1, 8,21, 0,12,30.00,40.00,SummerDesignDay
8,6639279.492427854
2268,0.0
2,1, 8,21, 0,12,40.00,50.00,SummerDesignDay
8,6647435.495423932
2268,0.0
2,1, 8,21, 0,12,50.00,60.00,SummerDesignDay
8,6655438.716769524
2268,0.0
2,1, 8,21, 0,13, 0.00,10.00,SummerDesignDay
8,6149904.851959786
2268,0.0
2,1, 8,21, 0,13,10.00,20.00,SummerDesignDay
8,6156713.700975808
2268,0.0
2,1, 8,21, 0,13,20.00,30.00,SummerDesignDay
8,6170993.924493741
2268,0.0
2,1, 8,21, 0,13,30.00,40.00,SummerDesignDay
8,6177609.894484053
2268,0.0
2,1, 8,21, 0,13,40.00,50.00,SummerDesignDay
8,6186347.75681512
2268,0.0
2,1, 8,21, 0,13,50.00,60.00,SummerDesignDay
8,6198527.337352302
2268,0.0
2,1, 8,21, 0,14, 0.00,10.00,SummerDesignDay
8,6720717.300854834
2268,0.0
2,1, 8,21, 0,14,10.00,20.00,SummerDesignDay
8,6728854.661435512
2268,0.0
2,1, 8,21, 0,14,20.00,30.00,SummerDesignDay
8,6737932.950407835
2268,0.0
2,1, 8,21, 0,14,30.00,40.00,SummerDesignDay
8,6746351.276445517
2268,0.0
2,1, 8,21, 0,14,40.00,50.00,SummerDesignDay
8,6754344.702552339
2268,0.0
2,1, 8,21, 0,14,50.00,60.00,SummerDesignDay
8,6761846.271472337
2268,0.0
2,1, 8,21, 0,15, 0.00,10.00,SummerDesignDay
8,6766771.998927983
2268,0.0
2,1, 8,21, 0,15,10.00,20.00,SummerDesignDay
8,6771081.190836447
2268,0.0
2,1, 8,21, 0,15,20.00,30.00,SummerDesignDay
8,6774817.495629124
2268,0.0
2,1, 8,21, 0,15,30.00,40.00,SummerDesignDay
8,8034943.575733363
2268,0.0
2,1, 8,21, 0,15,40.00,50.00,SummerDesignDay
8,6783449.745701102
2268,0.0
2,1, 8,21, 0,15,50.00,60.00,SummerDesignDay
8,6785946.069811904
2268,0.0
2,1, 8,21, 0,16, 0.00,10.00,SummerDesignDay
8,6784435.247706874
2268,0.0
2,1, 8,21, 0,16,10.00,20.00,SummerDesignDay
8,6781890.367100193
2268,0.0
2,1, 8,21, 0,16,20.00,30.00,SummerDesignDay
8,6778425.832793772
2268,0.0
2,1, 8,21, 0,16,30.00,40.00,SummerDesignDay
8,6774040.184592827
2268,0.0
2,1, 8,21, 0,16,40.00,50.00,SummerDesignDay
8,6768842.65215908
2268,0.0
2,1, 8,21, 0,16,50.00,60.00,SummerDesignDay
8,6763456.347306984
2268,0.0
2,1, 8,21, 0,17, 0.00,10.00,SummerDesignDay
8,6757054.810048248
2268,0.0
2,1, 8,21, 0,17,10.00,20.00,SummerDesignDay
8,6749973.274709965
2268,0.0
2,1, 8,21, 0,17,20.00,30.00,SummerDesignDay
8,6742251.738950653
2268,0.0
2,1, 8,21, 0,17,30.00,40.00,SummerDesignDay
8,6733887.825997287
2268,0.0
2,1, 8,21, 0,17,40.00,50.00,SummerDesignDay
8,6724897.19919073
2268,0.0
2,1, 8,21, 0,17,50.00,60.00,SummerDesignDay
8,6718313.289711037
2268,0.0
2,1, 8,21, 0,18, 0.00,10.00,SummerDesignDay
8,6196828.401184037
2268,0.0
2,1, 8,21, 0,18,10.00,20.00,SummerDesignDay
8,6188459.183135961
2268,0.0
2,1, 8,21, 0,18,20.00,30.00,SummerDesignDay
8,6179583.885443489
2268,0.0
2,1, 8,21, 0,18,30.00,40.00,SummerDesignDay
8,6170380.112273844
2268,0.0
2,1, 8,21, 0,18,40.00,50.00,SummerDesignDay
8,6160989.659037431
2268,0.0
2,1, 8,21, 0,18,50.00,60.00,SummerDesignDay
8,6152328.055734585
2268,0.0
2,1, 8,21, 0,19, 0.00,10.00,SummerDesignDay
8,5816317.132447166
2268,0.0
2,1, 8,21, 0,19,10.00,20.00,SummerDesignDay
8,5813896.425735096
2268,0.0
2,1, 8,21, 0,19,20.00,30.00,SummerDesignDay
8,5812251.101381968
2268,0.0
2,1, 8,21, 0,19,30.00,40.00,SummerDesignDay
8,5811139.0880987635
2268,0.0
2,1, 8,21, 0,19,40.00,50.00,SummerDesignDay
8,5810169.415551652
2268,0.0
2,1, 8,21, 0,19,50.00,60.00,SummerDesignDay
8,5809168.639965864
2268,0.0
2,1, 8,21, 0,20, 0.00,10.00,SummerDesignDay
8,5808279.6655244175
2268,0.0
2,1, 8,21, 0,20,10.00,20.00,SummerDesignDay
8,5807390.268508495
2268,0.0
2,1, 8,21, 0,20,20.00,30.00,SummerDesignDay
8,5806412.26874784
2268,0.0
2,1, 8,21, 0,20,30.00,40.00,SummerDesignDay
8,7060233.296212713
2268,0.0
2,1, 8,21, 0,20,40.00,50.00,SummerDesignDay
8,5803715.6717510875
2268,0.0
2,1, 8,21, 0,20,50.00,60.00,SummerDesignDay
8,5801789.1555592995
2268,0.0
2,1, 8,21, 0,21, 0.00,10.00,SummerDesignDay
8,5799809.452375837
2268,0.0
2,1, 8,21, 0,21,10.00,20.00,SummerDesignDay
8,5797818.919120686
2268,0.0
2,1, 8,21, 0,21,20.00,30.00,SummerDesignDay
8,5795875.020573007
2268,0.0
2,1, 8,21, 0,21,30.00,40.00,SummerDesignDay
8,6340880.027920289
2268,0.0
2,1, 8,21, 0,21,40.00,50.00,SummerDesignDay
8,6338987.405510249
2268,0.0
2,1, 8,21, 0,21,50.00,60.00,SummerDesignDay
8,6337363.239553282
2268,0.0
2,1, 8,21, 0,22, 0.00,10.00,SummerDesignDay
8,6335836.656189057
2268,0.0
2,1, 8,21, 0,22,10.00,20.00,SummerDesignDay
8,6334367.264011648
2268,0.0
2,1, 8,21, 0,22,20.00,30.00,SummerDesignDay
8,6332945.272086147
2268,0.0
2,1, 8,21, 0,22,30.00,40.00,SummerDesignDay
8,6331574.405054511
2268,0.0
2,1, 8,21, 0,22,40.00,50.00,SummerDesignDay
8,6330275.6844378635
2268,0.0
2,1, 8,21, 0,22,50.00,60.00,SummerDesignDay
8,6329021.981095579
2268,0.0
2,1, 8,21, 0,23, 0.00,10.00,SummerDesignDay
8,6327732.25311741
2268,0.0
2,1, 8,21, 0,23,10.00,20.00,SummerDesignDay
8,6326437.901464872
2268,0.0
2,1, 8,21, 0,23,20.00,30.00,SummerDesignDay
8,6325141.027622264
2268,0.0
2,1, 8,21, 0,23,30.00,40.00,SummerDesignDay
8,6323847.187505301
2268,0.0
2,1, 8,21, 0,23,40.00,50.00,SummerDesignDay
8,6322562.123331482
2268,0.0
2,1, 8,21, 0,23,50.00,60.00,SummerDesignDay
8,6321292.51409487
2268,0.0
2,1, 8,21, 0,24, 0.00,10.00,SummerDesignDay
8,6320064.130442867
2268,0.0
2,1, 8,21, 0,24,10.00,20.00,SummerDesignDay
8,6318779.8536881935
2268,0.0
2,1, 8,21, 0,24,20.00,30.00,SummerDesignDay
8,6317500.310438503
2268,0.0
2,1, 8,21, 0,24,30.00,40.00,SummerDesignDay
8,6316219.16354289
2268,0.0
2,1, 8,21, 0,24,40.00,50.00,SummerDesignDay
8,6314943.479275628
2268,0.0
2,1, 8,21, 0,24,50.00,60.00,SummerDesignDay
8,6313667.787566481
2268,0.0
1,KODIAK ANN HTG 99.6% CONDNS DB HVAC Sizing Pass 1,  57.75,-152.49,  -9.00,  34.00
2,1, 1,21, 0, 1, 0.00,10.00,WinterDesignDay
8,12497731.08685895
2268,14214718.811377434
2,1, 1,21, 0, 1,10.00,20.00,WinterDesignDay
8,12499453.44701977
2268,14218163.630405713
2,1, 1,21, 0, 1,20.00,30.00,WinterDesignDay
8,12501117.688464329
2268,14221451.90157878
2,1, 1,21, 0, 1,30.00,40.00,WinterDesignDay
8,12502730.668120012
2268,14224603.888650008
2,1, 1,21, 0, 1,40.00,50.00,WinterDesignDay
8,12504298.303734394
2268,14227636.88275202
2,1, 1,21, 0, 1,50.00,60.00,WinterDesignDay
8,12505825.698280917
2268,14230565.63687213
2,1, 1,21, 0, 2, 0.00,10.00,WinterDesignDay
8,12507317.249257622
2268,14233402.738290336
2,1, 1,21, 0, 2,10.00,20.00,WinterDesignDay
8,12508776.744349781
2268,14236158.927287871
2,1, 1,21, 0, 2,20.00,30.00,WinterDesignDay
8,12510207.4448794
2268,14238843.369569588
2,1, 1,21, 0, 2,30.00,40.00,WinterDesignDay
8,12511612.158397958
2268,14241463.888928626
2,1, 1,21, 0, 2,40.00,50.00,WinterDesignDay
8,12512993.301688071
2268,14244027.165827954
2,1, 1,21, 0, 2,50.00,60.00,WinterDesignDay
8,12514352.95533426
2268,14246538.9068047
2,1, 1,21, 0, 3, 0.00,10.00,WinterDesignDay
8,12515692.91091236
2268,14249003.98892496
2,1, 1,21, 0, 3,10.00,20.00,WinterDesignDay
8,12517014.711736716
2268,14251426.582921132
2,1, 1,21, 0, 3,20.00,30.00,WinterDesignDay
8,12518319.688001484
2268,14253810.258127552
2,1, 1,21, 0, 3,30.00,40.00,WinterDesignDay
8,12519608.987053001
2268,14256158.071882997
2,1, 1,21, 0, 3,40.00,50.00,WinterDesignDay
8,12520883.599443045
2268,14258472.645683343
2,1, 1,21, 0, 3,50.00,60.00,WinterDesignDay
8,12522144.38133039
2268,14260756.230035555
2,1, 1,21, 0, 4, 0.00,10.00,WinterDesignDay
8,12523392.073728457
2268,14263010.759680662
2,1, 1,21, 0, 4,10.00,20.00,WinterDesignDay
8,12524627.3190303
2268,14265237.900608223
2,1, 1,21, 0, 4,20.00,30.00,WinterDesignDay
8,12525850.6751875
2268,14267439.090077277
2,1, 1,21, 0, 4,30.00,40.00,WinterDesignDay
8,12527062.627868365
2268,14269615.570679743
2,1, 1,21, 0, 4,40.00,50.00,WinterDesignDay
8,12528263.600878142
2268,14271768.419329291
2,1, 1,21, 0, 4,50.00,60.00,WinterDesignDay
8,12529453.965085205
2268,14273898.571929267
2,1, 1,21, 0, 5, 0.00,10.00,WinterDesignDay
8,12530634.046063453
2268,14276006.844361432
2,1, 1,21, 0, 5,10.00,20.00,WinterDesignDay
8,12531804.13063355
2268,14278093.950342027
2,1, 1,21, 0, 5,20.00,30.00,WinterDesignDay
8,12532964.47245862
2268,14280160.516612124
2,1, 1,21, 0, 5,30.00,40.00,WinterDesignDay
8,12534115.296830453
2268,14282207.095857777
2,1, 1,21, 0, 5,40.00,50.00,WinterDesignDay
8,12535256.804760743
2268,14284234.177699825
2,1, 1,21, 0, 5,50.00,60.00,WinterDesignDay
8,13791105.603143739
2268,14286242.198039383
2,1, 1,21, 0, 6, 0.00,10.00,WinterDesignDay
8,12537512.574417165
2268,14288231.547005223
2,1, 1,21, 0, 6,10.00,20.00,WinterDesignDay
8,12538627.145768179
2268,14290202.575711802
2,1, 1,21, 0, 6,20.00,30.00,WinterDesignDay
8,12539733.024660006
2268,14292155.602004685
2,1, 1,21, 0, 6,30.00,40.00,WinterDesignDay
8,12540830.334019508
2268,14294090.915345326
2,1, 1,21, 0, 6,40.00,50.00,WinterDesignDay
8,12541919.187161107
2268,14296008.780963719
2,1, 1,21, 0, 6,50.00,60.00,WinterDesignDay
8,12542999.689142719
2268,14297909.443387734
2,1, 1,21, 0, 7, 0.00,10.00,WinterDesignDay
8,12729524.61906404
2268,16368828.395400671
2,1, 1,21, 0, 7,10.00,20.00,WinterDesignDay
8,12727533.606146354
2268,15203275.822998948
2,1, 1,21, 0, 7,20.00,30.00,WinterDesignDay
8,12716418.287289899
2268,15916314.863138828
2,1, 1,21, 0, 7,30.00,40.00,WinterDesignDay
8,12700173.298705947
2268,15629118.85248839
2,1, 1,21, 0, 7,40.00,50.00,WinterDesignDay
8,12683362.86279912
2268,15508120.1807209
2,1, 1,21, 0, 7,50.00,60.00,WinterDesignDay
8,12667587.640724683
2268,15423970.909370983
2,1, 1,21, 0, 8, 0.00,10.00,WinterDesignDay
8,12653382.448310679
2268,17558295.16613261
2,1, 1,21, 0, 8,10.00,20.00,WinterDesignDay
8,12636716.27721014
2268,17110634.9250449
2,1, 1,21, 0, 8,20.00,30.00,WinterDesignDay
8,12610413.972677067
2268,16967746.63836627
2,1, 1,21, 0, 8,30.00,40.00,WinterDesignDay
8,12579794.363844173
2268,16636766.400708389
2,1, 1,21, 0, 8,40.00,50.00,WinterDesignDay
8,12550350.855526831
2268,16468215.181575408
2,1, 1,21, 0, 8,50.00,60.00,WinterDesignDay
8,12523728.621047875
2268,16342955.70449121
2,1, 1,21, 0, 9, 0.00,10.00,WinterDesignDay
8,12719022.467403263
2268,17346148.69934991
2,1, 1,21, 0, 9,10.00,20.00,WinterDesignDay
8,12673417.26585201
2268,16620806.325385228
2,1, 1,21, 0, 9,20.00,30.00,WinterDesignDay
8,12633736.480619175
2268,16884717.00327001
2,1, 1,21, 0, 9,30.00,40.00,WinterDesignDay
8,12596019.217421265
2268,16667870.289526202
2,1, 1,21, 0, 9,40.00,50.00,WinterDesignDay
8,12562713.851621188
2268,16556948.793489961
2,1, 1,21, 0, 9,50.00,60.00,WinterDesignDay
8,12534032.097622296
2268,16470332.7968981
2,1, 1,21, 0,10, 0.00,10.00,WinterDesignDay
8,12509328.156395216
2268,16398431.290923916
2,1, 1,21, 0,10,10.00,20.00,WinterDesignDay
8,12488093.166178666
2268,16338429.71115156
2,1, 1,21, 0,10,20.00,30.00,WinterDesignDay
8,12469864.440671286
2268,16288168.894619584
2,1, 1,21, 0,10,30.00,40.00,WinterDesignDay
8,12454206.565892918
2268,16245895.825682754
2,1, 1,21, 0,10,40.00,50.00,WinterDesignDay
8,13148246.263620373
2268,16210198.24668027
2,1, 1,21, 0,10,50.00,60.00,WinterDesignDay
8,11881941.886486676
2268,16179929.81836904
2,1, 1,21, 0,11, 0.00,10.00,WinterDesignDay
8,11872094.776536284
2268,16154478.864045454
2,1, 1,21, 0,11,10.00,20.00,WinterDesignDay
8,11863524.986943655
2268,16132652.675319742
2,1, 1,21, 0,11,20.00,30.00,WinterDesignDay
8,11856041.989952125
2268,16113821.46734845
2,1, 1,21, 0,11,30.00,40.00,WinterDesignDay
8,11849504.805158876
2268,16097529.681614056
2,1, 1,21, 0,11,40.00,50.00,WinterDesignDay
8,11843768.021448247
2268,16083360.44641431
2,1, 1,21, 0,11,50.00,60.00,WinterDesignDay
8,11838709.88103018
2268,16070969.175535792
2,1, 1,21, 0,12, 0.00,10.00,WinterDesignDay
8,11834226.850081094
2268,16060069.168637132
2,1, 1,21, 0,12,10.00,20.00,WinterDesignDay
8,11830231.129425382
2268,16050421.815075498
2,1, 1,21, 0,12,20.00,30.00,WinterDesignDay
8,11826648.32429205
2268,16041828.238247205
2,1, 1,21, 0,12,30.00,40.00,WinterDesignDay
8,11823415.459056504
2268,16034122.471727677
2,1, 1,21, 0,12,40.00,50.00,WinterDesignDay
8,11820653.109897507
2268,16027498.545637462
2,1, 1,21, 0,12,50.00,60.00,WinterDesignDay
8,11818090.151531471
2268,16021427.99411549
2,1, 1,21, 0,13, 0.00,10.00,WinterDesignDay
8,11596127.76508906
2268,16031040.279038923
2,1, 1,21, 0,13,10.00,20.00,WinterDesignDay
8,11616495.874719087
2268,16027193.147084534
2,1, 1,21, 0,13,20.00,30.00,WinterDesignDay
8,11628134.421777293
2268,16023856.342182288
2,1, 1,21, 0,13,30.00,40.00,WinterDesignDay
8,11637309.711282007
2268,16020903.594167357
2,1, 1,21, 0,13,40.00,50.00,WinterDesignDay
8,11644757.746006347
2268,16018039.059765177
2,1, 1,21, 0,13,50.00,60.00,WinterDesignDay
8,11650860.44087108
2268,16015219.101428237
2,1, 1,21, 0,14, 0.00,10.00,WinterDesignDay
8,11875334.216567673
2268,15996651.167393923
2,1, 1,21, 0,14,10.00,20.00,WinterDesignDay
8,11856754.973056585
2268,15992246.895666402
2,1, 1,21, 0,14,20.00,30.00,WinterDesignDay
8,11846733.49818046
2268,15988063.14327497
2,1, 1,21, 0,14,30.00,40.00,WinterDesignDay
8,11837933.739991138
2268,15983975.307891784
2,1, 1,21, 0,14,40.00,50.00,WinterDesignDay
8,11830444.664401859
2268,15980025.727760313
2,1, 1,21, 0,14,50.00,60.00,WinterDesignDay
8,11824055.870353749
2268,15976238.050690046
2,1, 1,21, 0,15, 0.00,10.00,WinterDesignDay
8,11818563.024184324
2268,15972600.064510148
2,1, 1,21, 0,15,10.00,20.00,WinterDesignDay
8,11813804.67119885
2268,15969098.410379393
2,1, 1,21, 0,15,20.00,30.00,WinterDesignDay
8,11809650.995509492
2268,15965720.205441099
2,1, 1,21, 0,15,30.00,40.00,WinterDesignDay
8,13060690.165057028
2268,15962453.667441461
2,1, 1,21, 0,15,40.00,50.00,WinterDesignDay
8,11802756.706765592
2268,15959288.172844877
2,1, 1,21, 0,15,50.00,60.00,WinterDesignDay
8,11799860.427043853
2268,15956214.212628555