Program Version,EnergyPlus, Version 22.2.0-aa78da9668, YMD=2023.06.11 20:27
1,5,Environment Title[],Latitude[deg],Longitude[deg],Time Zone[],Elevation[m]
2,8,Day of Simulation[],Month[],Day of Month[],DST Indicator[1=yes 0=no],Hour[],StartMinute[],EndMinute[],DayType
3,5,Cumulative Day of Simulation[],Month[],Day of Month[],DST Indicator[1=yes 0=no],DayType  ! When Daily Meters Requested
4,2,Cumulative Days of Simulation[],Month[]  ! When Monthly Meters Requested
5,1,Cumulative Days of Simulation[] ! When Run Period Meters Requested
6,1,Calendar Year of Simulation[] ! When Annual Meters Requested
8,1,Electricity:Facility [J] !TimeStep
9,1,Electricity:Facility [J] !Hourly
764,1,ElectricityNet:Facility [J] !Hourly
10,7,Electricity:Facility [J] !Daily [Value,Min,Hour,Minute,Max,Hour,Minute]
End of Data Dictionary
1,RUN PERIOD 1,  57.75,-152.50,  -9.00,   5.00
2,1, 1, 1, 0, 1, 0.00,60.00,Sunday
8,46566355.88320053
2,1, 1, 1, 0, 1, 0.00,60.00,Sunday
9,46566355.88320053
764,46566355.88320053
2,1, 1, 1, 0, 2, 0.00,60.00,Sunday
8,45011246.84551614
2,1, 1, 1, 0, 2, 0.00,60.00,Sunday
9,45011246.84551614
764,45011246.84551614
2,1, 1, 1, 0, 3, 0.00,60.00,Sunday
8,41136605.823593594
2,1, 1, 1, 0, 3, 0.00,60.00,Sunday
9,41136605.823593594
764,41136605.823593594
2,1, 1, 1, 0, 4, 0.00,60.00,Sunday
8,37158928.18733697
2,1, 1, 1, 0, 4, 0.00,60.00,Sunday
9,37158928.18733697
764,37158928.18733697
2,1, 1, 1, 0, 5, 0.00,60.00,Sunday
8,39475400.52778701
2,1, 1, 1, 0, 5, 0.00,60.00,Sunday
9,39475400.52778701
764,39475400.52778701
2,1, 1, 1, 0, 6, 0.00,60.00,Sunday
8,30694452.142848276
2,1, 1, 1, 0, 6, 0.00,60.00,Sunday
9,30694452.142848276
764,30694452.142848276
2,1, 1, 1, 0, 7, 0.00,60.00,Sunday
8,38622060.82214144
2,1, 1, 1, 0, 7, 0.00,60.00,Sunday
9,38622060.82214144
764,38622060.82214143
2,1, 1, 1, 0, 8, 0.00,60.00,Sunday
8,40899910.763664395
2,1, 1, 1, 0, 8, 0.00,60.00,Sunday
9,40899910.763664395
764,40899910.763664395
2,1, 1, 1, 0, 9, 0.00,60.00,Sunday
8,29015036.62820656
2,1, 1, 1, 0, 9, 0.00,60.00,Sunday
9,29015036.62820656
764,29015036.628206555
2,1, 1, 1, 0,10, 0.00,60.00,Sunday
8,40494129.28233601
2,1, 1, 1, 0,10, 0.00,60.00,Sunday
9,40494129.28233601
764,40494129.28233601
2,1, 1, 1, 0,11, 0.00,60.00,Sunday
8,42616582.47905055
2,1, 1, 1, 0,11, 0.00,60.00,Sunday
9,42616582.47905055
764,42616582.47905055
2,1, 1, 1, 0,12, 0.00,60.00,Sunday
8,47681453.66296026
2,1, 1, 1, 0,12, 0.00,60.00,Sunday
9,47681453.66296026
764,47681453.66296026
2,1, 1, 1, 0,13, 0.00,60.00,Sunday
8,51736289.4600836
2,1, 1, 1, 0,13, 0.00,60.00,Sunday
9,51736289.4600836
764,51736289.460083604
2,1, 1, 1, 0,14, 0.00,60.00,Sunday
8,49420166.112369
2,1, 1, 1, 0,14, 0.00,60.00,Sunday
9,49420166.112369
764,49420166.11236899
2,1, 1, 1, 0,15, 0.00,60.00,Sunday
8,46617110.153206244
2,1, 1, 1, 0,15, 0.00,60.00,Sunday
9,46617110.153206244
764,46617110.153206244
2,1, 1, 1, 0,16, 0.00,60.00,Sunday
8,41135630.977422245
2,1, 1, 1, 0,16, 0.00,60.00,Sunday
9,41135630.977422245
764,41135630.97742225
2,1, 1, 1, 0,17, 0.00,60.00,Sunday
8,45659828.48381081
2,1, 1, 1, 0,17, 0.00,60.00,Sunday
9,45659828.48381081
764,45659828.48381081
2,1, 1, 1, 0,18, 0.00,60.00,Sunday
8,50280576.72949955
2,1, 1, 1, 0,18, 0.00,60.00,Sunday
9,50280576.72949955
764,50280576.72949955
2,1, 1, 1, 0,19, 0.00,60.00,Sunday
8,59433038.89075107
2,1, 1, 1, 0,19, 0.00,60.00,Sunday
9,59433038.89075107
764,59433038.89075107
2,1, 1, 1, 0,20, 0.00,60.00,Sunday
8,67393485.11392792
2,1, 1, 1, 0,20, 0.00,60.00,Sunday
9,67393485.11392792
764,67393485.1139279
2,1, 1, 1, 0,21, 0.00,60.00,Sunday
8,51468676.20444671
2,1, 1, 1, 0,21, 0.00,60.00,Sunday
9,51468676.20444671
764,51468676.20444671
2,1, 1, 1, 0,22, 0.00,60.00,Sunday
8,46769683.11332164
2,1, 1, 1, 0,22, 0.00,60.00,Sunday
9,46769683.11332164
764,46769683.11332163
2,1, 1, 1, 0,23, 0.00,60.00,Sunday
8,35039240.74833321
2,1, 1, 1, 0,23, 0.00,60.00,Sunday
9,35039240.74833321
764,35039240.7483332
2,1, 1, 1, 0,24, 0.00,60.00,Sunday
8,35550113.54988148
2,1, 1, 1, 0,24, 0.00,60.00,Sunday
9,35550113.54988148
764,35550113.54988147
3,1, 1, 1, 0,Sunday
10,1059876002.5856951,29015036.62820656, 9,60,67393485.11392792,20,60
2,2, 1, 2, 0, 1, 0.00,60.00,Monday
8,49257282.72594181
2,2, 1, 2, 0, 1, 0.00,60.00,Monday
9,49257282.72594181
764,49257282.72594181
2,2, 1, 2, 0, 2, 0.00,60.00,Monday
8,39797978.01434989
2,2, 1, 2, 0, 2, 0.00,60.00,Monday
9,39797978.01434989
764,39797978.014349885
2,2, 1, 2, 0, 3, 0.00,60.00,Monday
8,43297369.62942617
2,2, 1, 2, 0, 3, 0.00,60.00,Monday
9,43297369.62942617
764,43297369.629426174
2,2, 1, 2, 0, 4, 0.00,60.00,Monday
8,58354520.12739376
2,2, 1, 2, 0, 4, 0.00,60.00,Monday
9,58354520.12739376
764,58354520.12739376
2,2, 1, 2, 0, 5, 0.00,60.00,Monday
8,61003863.70752095
2,2, 1, 2, 0, 5, 0.00,60.00,Monday
9,61003863.70752095
764,61003863.70752095
2,2, 1, 2, 0, 6, 0.00,60.00,Monday
8,49364924.465868816
2,2, 1, 2, 0, 6, 0.00,60.00,Monday
9,49364924.465868816
764,49364924.465868816
2,2, 1, 2, 0, 7, 0.00,60.00,Monday
8,62943179.157490335
2,2, 1, 2, 0, 7, 0.00,60.00,Monday
9,62943179.157490335
764,62943179.15749033
2,2, 1, 2, 0, 8, 0.00,60.00,Monday
8,62967237.877505094
2,2, 1, 2, 0, 8, 0.00,60.00,Monday
9,62967237.877505094
764,62967237.877505094
2,2, 1, 2, 0, 9, 0.00,60.00,Monday
8,46492040.87936834
2,2, 1, 2, 0, 9, 0.00,60.00,Monday
9,46492040.87936834
764,46492040.879368335
2,2, 1, 2, 0,10, 0.00,60.00,Monday
8,44079012.40177202
2,2, 1, 2, 0,10, 0.00,60.00,Monday
9,44079012.40177202
764,44079012.40177202
2,2, 1, 2, 0,11, 0.00,60.00,Monday
8,50422833.39352564
2,2, 1, 2, 0,11, 0.00,60.00,Monday
9,50422833.39352564
764,50422833.393525645
2,2, 1, 2, 0,12, 0.00,60.00,Monday
8,54767275.97660315
2,2, 1, 2, 0,12, 0.00,60.00,Monday
9,54767275.97660315
764,54767275.97660316
2,2, 1, 2, 0,13, 0.00,60.00,Monday
8,51729202.59710126
2,2, 1, 2, 0,13, 0.00,60.00,Monday
9,51729202.59710126
764,51729202.597101256
2,2, 1, 2, 0,14, 0.00,60.00,Monday
8,42537022.988305256
2,2, 1, 2, 0,14, 0.00,60.00,Monday
9,42537022.988305256
764,42537022.98830525
2,2, 1, 2, 0,15, 0.00,60.00,Monday
8,44338825.049725614
2,2, 1, 2, 0,15, 0.00,60.00,Monday
9,44338825.049725614
764,44338825.049725614
2,2, 1, 2, 0,16, 0.00,60.00,Monday
8,46458394.08995396
2,2, 1, 2, 0,16, 0.00,60.00,Monday
9,46458394.08995396
764,46458394.08995396
2,2, 1, 2, 0,17, 0.00,60.00,Monday
8,54712715.318652555
2,2, 1, 2, 0,17, 0.00,60.00,Monday
9,54712715.318652555
764,54712715.31865256
2,2, 1, 2, 0,18, 0.00,60.00,Monday
8,32627390.29658782
2,2, 1, 2, 0,18, 0.00,60.00,Monday
9,32627390.29658782
764,32627390.296587825
2,2, 1, 2, 0,19, 0.00,60.00,Monday
8,38740689.648013234
2,2, 1, 2, 0,19, 0.00,60.00,Monday
9,38740689.648013234
764,38740689.64801324
2,2, 1, 2, 0,20, 0.00,60.00,Monday
8,43798897.97075007
2,2, 1, 2, 0,20, 0.00,60.00,Monday
9,43798897.97075007
764,43798897.97075006
2,2, 1, 2, 0,21, 0.00,60.00,Monday
8,46755414.2657932
2,2, 1, 2, 0,21, 0.00,60.00,Monday
9,46755414.2657932
764,46755414.2657932
2,2, 1, 2, 0,22, 0.00,60.00,Monday
8,40516850.47295218
2,2, 1, 2, 0,22, 0.00,60.00,Monday
9,40516850.47295218
764,40516850.47295218
2,2, 1, 2, 0,23, 0.00,60.00,Monday
8,44796841.04575405
2,2, 1, 2, 0,23, 0.00,60.00,Monday
9,44796841.04575405
764,44796841.045754045
2,2, 1, 2, 0,24, 0.00,60.00,Monday
8,40637976.59513422
2,2, 1, 2, 0,24, 0.00,60.00,Monday
9,40637976.59513422
764,40637976.59513422
3,2, 1, 2, 0,Monday
10,1150397738.6954892,32627390.29658782,18,60,62967237.877505094, 8,60
2,3, 1, 3, 0, 1, 0.00,60.00,Tuesday
8,45760208.930903584
2,3, 1, 3, 0, 1, 0.00,60.00,Tuesday
9,45760208.930903584
764,45760208.930903584
2,3, 1, 3, 0, 2, 0.00,60.00,Tuesday
8,41339416.841381185
2,3, 1, 3, 0, 2, 0.00,60.00,Tuesday
9,41339416.841381185
764,41339416.84138118
2,3, 1, 3, 0, 3, 0.00,60.00,Tuesday
8,42001007.54571417
2,3, 1, 3, 0, 3, 0.00,60.00,Tuesday
9,42001007.54571417
764,42001007.54571417
2,3, 1, 3, 0, 4, 0.00,60.00,Tuesday
8,37210553.696636915
2,3, 1, 3, 0, 4, 0.00,60.00,Tuesday
9,37210553.696636915
764,37210553.69663691
2,3, 1, 3, 0, 5, 0.00,60.00,Tuesday
8,37205000.02513579
2,3, 1, 3, 0, 5, 0.00,60.00,Tuesday
9,37205000.02513579
764,37205000.0251358
2,3, 1, 3, 0, 6, 0.00,60.00,Tuesday
8,44482732.78189251
2,3, 1, 3, 0, 6, 0.00,60.00,Tuesday
9,44482732.78189251
764,44482732.7818925
2,3, 1, 3, 0, 7, 0.00,60.00,Tuesday
8,45903016.14530998
2,3, 1, 3, 0, 7, 0.00,60.00,Tuesday
9,45903016.14530998
764,45903016.14530997
2,3, 1, 3, 0, 8, 0.00,60.00,Tuesday
8,50551199.51038789
2,3, 1, 3, 0, 8, 0.00,60.00,Tuesday
9,50551199.51038789
764,50551199.51038789
2,3, 1, 3, 0, 9, 0.00,60.00,Tuesday
8,52450918.32146445
2,3, 1, 3, 0, 9, 0.00,60.00,Tuesday
9,52450918.32146445
764,52450918.32146445
2,3, 1, 3, 0,10, 0.00,60.00,Tuesday
8,45190632.695337266
2,3, 1, 3, 0,10, 0.00,60.00,Tuesday
9,45190632.695337266
764,45190632.695337266
2,3, 1, 3, 0,11, 0.00,60.00,Tuesday
8,42449105.46930171
2,3, 1, 3, 0,11, 0.00,60.00,Tuesday
9,42449105.46930171
764,42449105.46930172
2,3, 1, 3, 0,12, 0.00,60.00,Tuesday
8,36018456.3902227
2,3, 1, 3, 0,12, 0.00,60.00,Tuesday
9,36018456.3902227
764,36018456.3902227
2,3, 1, 3, 0,13, 0.00,60.00,Tuesday
8,30462408.399647094
2,3, 1, 3, 0,13, 0.00,60.00,Tuesday
9,30462408.399647094
764,30462408.399647087
2,3, 1, 3, 0,14, 0.00,60.00,Tuesday
8,34027082.90407245
2,3, 1, 3, 0,14, 0.00,60.00,Tuesday
9,34027082.90407245
764,34027082.904072456
2,3, 1, 3, 0,15, 0.00,60.00,Tuesday
8,34470043.205377296
2,3, 1, 3, 0,15, 0.00,60.00,Tuesday
9,34470043.205377296
764,34470043.205377296
2,3, 1, 3, 0,16, 0.00,60.00,Tuesday
8,23163989.06488772
2,3, 1, 3, 0,16, 0.00,60.00,Tuesday
9,23163989.06488772
764,23163989.064887717
2,3, 1, 3, 0,17, 0.00,60.00,Tuesday
8,37531705.016776115
2,3, 1, 3, 0,17, 0.00,60.00,Tuesday
9,37531705.016776115
764,37531705.016776115
2,3, 1, 3, 0,18, 0.00,60.00,Tuesday
8,32808490.71773076
2,3, 1, 3, 0,18, 0.00,60.00,Tuesday
9,32808490.71773076
764,32808490.71773076
2,3, 1, 3, 0,19, 0.00,60.00,Tuesday
8,30866525.247121636
2,3, 1, 3, 0,19, 0.00,60.00,Tuesday
9,30866525.247121636
764,30866525.247121636
2,3, 1, 3, 0,20, 0.00,60.00,Tuesday
8,30843293.724400803
2,3, 1, 3, 0,20, 0.00,60.00,Tuesday
9,30843293.724400803
764,30843293.724400803
2,3, 1, 3, 0,21, 0.00,60.00,Tuesday
8,23531512.06644144
2,3, 1, 3, 0,21, 0.00,60.00,Tuesday
9,23531512.06644144
764,23531512.06644144
2,3, 1, 3, 0,22, 0.00,60.00,Tuesday
8,22345278.637146182
2,3, 1, 3, 0,22, 0.00,60.00,Tuesday
9,22345278.637146182
764,22345278.637146182
2,3, 1, 3, 0,23, 0.00,60.00,Tuesday
8,35359638.61670403
2,3, 1, 3, 0,23, 0.00,60.00,Tuesday
9,35359638.61670403
764,35359638.61670403
2,3, 1, 3, 0,24, 0.00,60.00,Tuesday
8,32336602.522768997
2,3, 1, 3, 0,24, 0.00,60.00,Tuesday
9,32336602.522768997
764,32336602.522768997
3,3, 1, 3, 0,Tuesday
10,888308818.4767627,22345278.637146182,22,60,52450918.32146445, 9,60
2,4, 1, 4, 0, 1, 0.00,60.00,Wednesday
8,35727665.83309624
2,4, 1, 4, 0, 1, 0.00,60.00,Wednesday
9,35727665.83309624
764,35727665.833096236
2,4, 1, 4, 0, 2, 0.00,60.00,Wednesday
8,43140961.85817056
2,4, 1, 4, 0, 2, 0.00,60.00,Wednesday
9,43140961.85817056
764,43140961.858170554
2,4, 1, 4, 0, 3, 0.00,60.00,Wednesday
8,49445068.71441126
2,4, 1, 4, 0, 3, 0.00,60.00,Wednesday
9,49445068.71441126
764,49445068.71441125
2,4, 1, 4, 0, 4, 0.00,60.00,Wednesday
8,46074716.073777884
2,4, 1, 4, 0, 4, 0.00,60.00,Wednesday
9,46074716.073777884
764,46074716.073777884
2,4, 1, 4, 0, 5, 0.00,60.00,Wednesday
8,39308184.79646331
2,4, 1, 4, 0, 5, 0.00,60.00,Wednesday
9,39308184.79646331
764,39308184.79646331
2,4, 1, 4, 0, 6, 0.00,60.00,Wednesday
8,39323345.11564913
2,4, 1, 4, 0, 6, 0.00,60.00,Wednesday
9,39323345.11564913
764,39323345.11564913
2,4, 1, 4, 0, 7, 0.00,60.00,Wednesday
8,45244309.638858855
2,4, 1, 4, 0, 7, 0.00,60.00,Wednesday
9,45244309.638858855
764,45244309.63885886
2,4, 1, 4, 0, 8, 0.00,60.00,Wednesday
8,45713588.81337356
2,4, 1, 4, 0, 8, 0.00,60.00,Wednesday
9,45713588.81337356
764,45713588.813373566
2,4, 1, 4, 0, 9, 0.00,60.00,Wednesday
8,42728857.47600229
2,4, 1, 4, 0, 9, 0.00,60.00,Wednesday
9,42728857.47600229
764,42728857.47600229
2,4, 1, 4, 0,10, 0.00,60.00,Wednesday
8,44878432.84033607
2,4, 1, 4, 0,10, 0.00,60.00,Wednesday
9,44878432.84033607
764,44878432.84033606
2,4, 1, 4, 0,11, 0.00,60.00,Wednesday
8,33996789.053087875
2,4, 1, 4, 0,11, 0.00,60.00,Wednesday
9,33996789.053087875
764,33996789.053087875
2,4, 1, 4, 0,12, 0.00,60.00,Wednesday
8,30439794.854469497
2,4, 1, 4, 0,12, 0.00,60.00,Wednesday
9,30439794.854469497
764,30439794.854469497
2,4, 1, 4, 0,13, 0.00,60.00,Wednesday
8,28195284.537440795
2,4, 1, 4, 0,13, 0.00,60.00,Wednesday
9,28195284.537440795
764,28195284.537440795
2,4, 1, 4, 0,14, 0.00,60.00,Wednesday
8,21810876.43404276
2,4, 1, 4, 0,14, 0.00,60.00,Wednesday
9,21810876.43404276
764,21810876.43404276
2,4, 1, 4, 0,15, 0.00,60.00,Wednesday
8,35242875.041498505
2,4, 1, 4, 0,15, 0.00,60.00,Wednesday
9,35242875.041498505
764,35242875.041498505
2,4, 1, 4, 0,16, 0.00,60.00,Wednesday
8,37644305.786864996
2,4, 1, 4, 0,16, 0.00,60.00,Wednesday
9,37644305.786864996
764,37644305.786864996
2,4, 1, 4, 0,17, 0.00,60.00,Wednesday
8,36638378.67655849
2,4, 1, 4, 0,17, 0.00,60.00,Wednesday
9,36638378.67655849
764,36638378.67655849
2,4, 1, 4, 0,18, 0.00,60.00,Wednesday
8,38794062.68836249
2,4, 1, 4, 0,18, 0.00,60.00,Wednesday
9,38794062.68836249
764,38794062.688362494
2,4, 1, 4, 0,19, 0.00,60.00,Wednesday
8,30568128.8876361
2,4, 1, 4, 0,19, 0.00,60.00,Wednesday
9,30568128.8876361
764,30568128.887636103
2,4, 1, 4, 0,20, 0.00,60.00,Wednesday
8,30862676.79289462
2,4, 1, 4, 0,20, 0.00,60.00,Wednesday
9,30862676.79289462
764,30862676.792894613
2,4, 1, 4, 0,21, 0.00,60.00,Wednesday
8,55281574.87926377
2,4, 1, 4, 0,21, 0.00,60.00,Wednesday
9,55281574.87926377
764,55281574.87926376
2,4, 1, 4, 0,22, 0.00,60.00,Wednesday
8,60560687.421054825
2,4, 1, 4, 0,22, 0.00,60.00,Wednesday
9,60560687.421054825
764,60560687.421054825
2,4, 1, 4, 0,23, 0.00,60.00,Wednesday
8,49133207.92504306
2,4, 1, 4, 0,23, 0.00,60.00,Wednesday
9,49133207.92504306
764,49133207.92504307
2,4, 1, 4, 0,24, 0.00,60.00,Wednesday
8,66496478.260313965
2,4, 1, 4, 0,24, 0.00,60.00,Wednesday
9,66496478.260313965
764,66496478.260313965
3,4, 1, 4, 0,Wednesday
10,987250252.3986709,21810876.43404276,14,60,66496478.260313965,24,60
2,5, 1, 5, 0, 1, 0.00,60.00,Thursday
8,65914371.497456506
2,5, 1, 5, 0, 1, 0.00,60.00,Thursday
9,65914371.497456506
764,65914371.497456506
2,5, 1, 5, 0, 2, 0.00,60.00,Thursday
8,56957411.66805319
2,5, 1, 5, 0, 2, 0.00,60.00,Thursday
9,56957411.66805319
764,56957411.66805319
2,5, 1, 5, 0, 3, 0.00,60.00,Thursday
8,61316089.443153776
2,5, 1, 5, 0, 3, 0.00,60.00,Thursday
9,61316089.443153776
764,61316089.44315378
2,5, 1, 5, 0, 4, 0.00,60.00,Thursday
8,69197060.98462875
2,5, 1, 5, 0, 4, 0.00,60.00,Thursday
9,69197060.98462875
764,69197060.98462875
2,5, 1, 5, 0, 5, 0.00,60.00,Thursday
8,31827003.31529955
2,5, 1, 5, 0, 5, 0.00,60.00,Thursday
9,31827003.31529955
764,31827003.31529955
2,5, 1, 5, 0, 6, 0.00,60.00,Thursday
8,63090664.140496895
2,5, 1, 5, 0, 6, 0.00,60.00,Thursday
9,63090664.140496895
764,63090664.14049691
2,5, 1, 5, 0, 7, 0.00,60.00,Thursday
8,60246393.56598491
2,5, 1, 5, 0, 7, 0.00,60.00,Thursday
9,60246393.56598491
764,60246393.56598491
2,5, 1, 5, 0, 8, 0.00,60.00,Thursday
8,74991146.46648763
2,5, 1, 5, 0, 8, 0.00,60.00,Thursday
9,74991146.46648763
764,74991146.46648765
2,5, 1, 5, 0, 9, 0.00,60.00,Thursday
8,104416191.32771404
2,5, 1, 5, 0, 9, 0.00,60.00,Thursday
9,104416191.32771404
764,104416191.32771404
2,5, 1, 5, 0,10, 0.00,60.00,Thursday
8,99653436.76226088
2,5, 1, 5, 0,10, 0.00,60.00,Thursday
9,99653436.76226088
764,99653436.76226088
2,5, 1, 5, 0,11, 0.00,60.00,Thursday
8,101432501.14650598
2,5, 1, 5, 0,11, 0.00,60.00,Thursday
9,101432501.14650598
764,101432501.146506
2,5, 1, 5, 0,12, 0.00,60.00,Thursday
8,91470404.23283084
2,5, 1, 5, 0,12, 0.00,60.00,Thursday
9,91470404.23283084
764,91470404.23283082
2,5, 1, 5, 0,13, 0.00,60.00,Thursday
8,93349543.6345202
2,5, 1, 5, 0,13, 0.00,60.00,Thursday
9,93349543.6345202
764,93349543.6345202
2,5, 1, 5, 0,14, 0.00,60.00,Thursday
8,101430499.70555271
2,5, 1, 5, 0,14, 0.00,60.00,Thursday
9,101430499.70555271
764,101430499.70555271
2,5, 1, 5, 0,15, 0.00,60.00,Thursday
8,101432501.14650598
2,5, 1, 5, 0,15, 0.00,60.00,Thursday
9,101432501.14650598
764,101432501.14650598
2,5, 1, 5, 0,16, 0.00,60.00,Thursday
8,101395434.49062338
2,5, 1, 5, 0,16, 0.00,60.00,Thursday
9,101395434.49062338
764,101395434.49062338
2,5, 1, 5, 0,17, 0.00,60.00,Thursday
8,106028747.86212693
2,5, 1, 5, 0,17, 0.00,60.00,Thursday
9,106028747.86212693
764,106028747.86212695
2,5, 1, 5, 0,18, 0.00,60.00,Thursday
8,103757248.6340803
2,5, 1, 5, 0,18, 0.00,60.00,Thursday
9,103757248.6340803
764,103757248.63408032
2,5, 1, 5, 0,19, 0.00,60.00,Thursday
8,102348115.13056162
2,5, 1, 5, 0,19, 0.00,60.00,Thursday
9,102348115.13056162
764,102348115.13056162
2,5, 1, 5, 0,20, 0.00,60.00,Thursday
8,88689330.78754929
2,5, 1, 5, 0,20, 0.00,60.00,Thursday
9,88689330.78754929
764,88689330.7875493
2,5, 1, 5, 0,21, 0.00,60.00,Thursday
8,72101939.30281094
2,5, 1, 5, 0,21, 0.00,60.00,Thursday
9,72101939.30281094
764,72101939.30281095
2,5, 1, 5, 0,22, 0.00,60.00,Thursday
8,71737120.6233604
2,5, 1, 5, 0,22, 0.00,60.00,Thursday
9,71737120.6233604
764,71737120.62336041
2,5, 1, 5, 0,23, 0.00,60.00,Thursday
8,70233314.25375055
2,5, 1, 5, 0,23, 0.00,60.00,Thursday
9,70233314.25375055
764,70233314.25375055
2,5, 1, 5, 0,24, 0.00,60.00,Thursday
8,79002501.22045137
2,5, 1, 5, 0,24, 0.00,60.00,Thursday
9,79002501.22045137
764,79002501.22045137
3,5, 1, 5, 0,Thursday
10,1972018971.3427668,31827003.31529955, 5,60,106028747.86212693,17,60
2,6, 1, 6, 0, 1, 0.00,60.00,Friday
8,91054175.34960909
2,6, 1, 6, 0, 1, 0.00,60.00,Friday
9,91054175.34960909
764,91054175.34960908
2,6, 1, 6, 0, 2, 0.00,60.00,Friday
8,83614803.48232532
2,6, 1, 6, 0, 2, 0.00,60.00,Friday
9,83614803.48232532
764,83614803.48232535
2,6, 1, 6, 0, 3, 0.00,60.00,Friday
8,79168105.80405141
2,6, 1, 6, 0, 3, 0.00,60.00,Friday
9,79168105.80405141
764,79168105.80405141
2,6, 1, 6, 0, 4, 0.00,60.00,Friday
8,60249079.099495366
2,6, 1, 6, 0, 4, 0.00,60.00,Friday
9,60249079.099495366
764,60249079.09949537
2,6, 1, 6, 0, 5, 0.00,60.00,Friday
8,46713949.69653561
2,6, 1, 6, 0, 5, 0.00,60.00,Friday
9,46713949.69653561
764,46713949.6965356
2,6, 1, 6, 0, 6, 0.00,60.00,Friday
8,51182909.72129252
2,6, 1, 6, 0, 6, 0.00,60.00,Friday
9,51182909.72129252
764,51182909.72129252
2,6, 1, 6, 0, 7, 0.00,60.00,Friday
8,83821613.82081212
2,6, 1, 6, 0, 7, 0.00,60.00,Friday
9,83821613.82081212
764,83821613.82081214
2,6, 1, 6, 0, 8, 0.00,60.00,Friday
8,72782689.35682774
2,6, 1, 6, 0, 8, 0.00,60.00,Friday
9,72782689.35682774
764,72782689.35682775
2,6, 1, 6, 0, 9, 0.00,60.00,Friday
8,72484653.30201568
2,6, 1, 6, 0, 9, 0.00,60.00,Friday
9,72484653.30201568
764,72484653.30201569
2,6, 1, 6, 0,10, 0.00,60.00,Friday
8,58521464.72415011
2,6, 1, 6, 0,10, 0.00,60.00,Friday
9,58521464.72415011
764,58521464.72415009
2,6, 1, 6, 0,11, 0.00,60.00,Friday
8,91061424.76849784
2,6, 1, 6, 0,11, 0.00,60.00,Friday
9,91061424.76849784
764,91061424.76849785
2,6, 1, 6, 0,12, 0.00,60.00,Friday
8,87548165.47497727
2,6, 1, 6, 0,12, 0.00,60.00,Friday
9,87548165.47497727
764,87548165.47497727
2,6, 1, 6, 0,13, 0.00,60.00,Friday
8,92461942.3888425
2,6, 1, 6, 0,13, 0.00,60.00,Friday
9,92461942.3888425
764,92461942.3888425
2,6, 1, 6, 0,14, 0.00,60.00,Friday
8,90494329.66181852
2,6, 1, 6, 0,14, 0.00,60.00,Friday
9,90494329.66181852
764,90494329.66181852
2,6, 1, 6, 0,15, 0.00,60.00,Friday
8,90586195.28191143
2,6, 1, 6, 0,15, 0.00,60.00,Friday
9,90586195.28191143
764,90586195.28191143
2,6, 1, 6, 0,16, 0.00,60.00,Friday
8,101747922.24823585
2,6, 1, 6, 0,16, 0.00,60.00,Friday
9,101747922.24823585
764,101747922.24823585
2,6, 1, 6, 0,17, 0.00,60.00,Friday
8,102908977.02515292
2,6, 1, 6, 0,17, 0.00,60.00,Friday
9,102908977.02515292
764,102908977.02515292
2,6, 1, 6, 0,18, 0.00,60.00,Friday
8,91355838.44712758
2,6, 1, 6, 0,18, 0.00,60.00,Friday
9,91355838.44712758
764,91355838.4471276
2,6, 1, 6, 0,19, 0.00,60.00,Friday
8,102407114.53271152
2,6, 1, 6, 0,19, 0.00,60.00,Friday
9,102407114.53271152
764,102407114.53271154
2,6, 1, 6, 0,20, 0.00,60.00,Friday
8,102345694.17205241
2,6, 1, 6, 0,20, 0.00,60.00,Friday
9,102345694.17205241
764,102345694.17205241
2,6, 1, 6, 0,21, 0.00,60.00,Friday
8,95712174.29722057
2,6, 1, 6, 0,21, 0.00,60.00,Friday
9,95712174.29722057
764,95712174.29722059
2,6, 1, 6, 0,22, 0.00,60.00,Friday
8,103747828.40948012
2,6, 1, 6, 0,22, 0.00,60.00,Friday
9,103747828.40948012
764,103747828.40948011
2,6, 1, 6, 0,23, 0.00,60.00,Friday
8,102548765.44701163
2,6, 1, 6, 0,23, 0.00,60.00,Friday
9,102548765.44701163
764,102548765.44701163
2,6, 1, 6, 0,24, 0.00,60.00,Friday
8,90439222.75266604
2,6, 1, 6, 0,24, 0.00,60.00,Friday
9,90439222.75266604
764,90439222.75266601
3,6, 1, 6, 0,Friday
10,2044959039.2648208,46713949.69653561, 5,60,103747828.40948012,22,60
2,7, 1, 7, 0, 1, 0.00,60.00,Saturday
8,101442243.1360667
2,7, 1, 7, 0, 1, 0.00,60.00,Saturday
9,101442243.1360667
764,101442243.13606672
2,7, 1, 7, 0, 2, 0.00,60.00,Saturday
8,101403598.43505068
2,7, 1, 7, 0, 2, 0.00,60.00,Saturday
9,101403598.43505068
764,101403598.43505068
2,7, 1, 7, 0, 3, 0.00,60.00,Saturday
8,101120562.1354765
2,7, 1, 7, 0, 3, 0.00,60.00,Saturday
9,101120562.1354765
764,101120562.1354765
2,7, 1, 7, 0, 4, 0.00,60.00,Saturday
8,83340470.75443166
2,7, 1, 7, 0, 4, 0.00,60.00,Saturday
9,83340470.75443166
764,83340470.7544317
2,7, 1, 7, 0, 5, 0.00,60.00,Saturday
8,97506477.4091351
2,7, 1, 7, 0, 5, 0.00,60.00,Saturday
9,97506477.4091351
764,97506477.4091351
2,7, 1, 7, 0, 6, 0.00,60.00,Saturday
8,101340863.35279664
2,7, 1, 7, 0, 6, 0.00,60.00,Saturday
9,101340863.35279664
764,101340863.35279664
2,7, 1, 7, 0, 7, 0.00,60.00,Saturday
8,103067627.40086131
2,7, 1, 7, 0, 7, 0.00,60.00,Saturday
9,103067627.40086131
764,103067627.40086131
2,7, 1, 7, 0, 8, 0.00,60.00,Saturday
8,97344828.78347073
2,7, 1, 7, 0, 8, 0.00,60.00,Saturday
9,97344828.78347073
764,97344828.78347072
2,7, 1, 7, 0, 9, 0.00,60.00,Saturday
8,92722014.41485652
2,7, 1, 7, 0, 9, 0.00,60.00,Saturday
9,92722014.41485652
764,92722014.41485652
2,7, 1, 7, 0,10, 0.00,60.00,Saturday
8,76569537.498418
2,7, 1, 7, 0,10, 0.00,60.00,Saturday
9,76569537.498418
764,76569537.49841802
2,7, 1, 7, 0,11, 0.00,60.00,Saturday
8,66011472.704757184
2,7, 1, 7, 0,11, 0.00,60.00,Saturday
9,66011472.704757184
764,66011472.70475717
2,7, 1, 7, 0,12, 0.00,60.00,Saturday
8,72557569.88081428
2,7, 1, 7, 0,12, 0.00,60.00,Saturday
9,72557569.88081428
764,72557569.88081431
2,7, 1, 7, 0,13, 0.00,60.00,Saturday
8,79663830.4473277
2,7, 1, 7, 0,13, 0.00,60.00,Saturday
9,79663830.4473277
764,79663830.44732772
2,7, 1, 7, 0,14, 0.00,60.00,Saturday
8,76899582.7537799
2,7, 1, 7, 0,14, 0.00,60.00,Saturday
9,76899582.7537799
764,76899582.7537799
2,7, 1, 7, 0,15, 0.00,60.00,Saturday
8,73657777.5099881
2,7, 1, 7, 0,15, 0.00,60.00,Saturday
9,73657777.5099881
764,73657777.50998811
2,7, 1, 7, 0,16, 0.00,60.00,Saturday
8,72387533.95683792
2,7, 1, 7, 0,16, 0.00,60.00,Saturday
9,72387533.95683792
764,72387533.95683794
2,7, 1, 7, 0,17, 0.00,60.00,Saturday
8,77124842.38927595
2,7, 1, 7, 0,17, 0.00,60.00,Saturday
9,77124842.38927595
764,77124842.38927598
2,7, 1, 7, 0,18, 0.00,60.00,Saturday
8,76759395.43603279
2,7, 1, 7, 0,18, 0.00,60.00,Saturday
9,76759395.43603279
764,76759395.4360328
2,7, 1, 7, 0,19, 0.00,60.00,Saturday
8,78131052.73404285
2,7, 1, 7, 0,19, 0.00,60.00,Saturday
9,78131052.73404285
764,78131052.73404285
2,7, 1, 7, 0,20, 0.00,60.00,Saturday
8,85605745.17116678
2,7, 1, 7, 0,20, 0.00,60.00,Saturday
9,85605745.17116678
764,85605745.17116678
2,7, 1, 7, 0,21, 0.00,60.00,Saturday
8,90109293.35355501
2,7, 1, 7, 0,21, 0.00,60.00,Saturday
9,90109293.35355501
764,90109293.353555
2,7, 1, 7, 0,22, 0.00,60.00,Saturday
8,83793626.5524363
2,7, 1, 7, 0,22, 0.00,60.00,Saturday
9,83793626.5524363
764,83793626.55243634
2,7, 1, 7, 0,23, 0.00,60.00,Saturday
8,87355698.54871494
2,7, 1, 7, 0,23, 0.00,60.00,Saturday
9,87355698.54871494
764,87355698.54871495
2,7, 1, 7, 0,24, 0.00,60.00,Saturday
8,88134208.36958794
2,7, 1, 7, 0,24, 0.00,60.00,Saturday
9,88134208.36958794
764,88134208.36958794
3,7, 1, 7, 0,Saturday
10,2064049853.1288815,66011472.704757184,11,60,103067627.40086131, 7,60
2,8, 1, 8, 0, 1, 0.00,60.00,Sunday
8,88285560.01013683
2,8, 1, 8, 0, 1, 0.00,60.00,Sunday
9,88285560.01013683
764,88285560.01013684
2,8, 1, 8, 0, 2, 0.00,60.00,Sunday
8,88212477.828954
2,8, 1, 8, 0, 2, 0.00,60.00,Sunday
9,88212477.828954
764,88212477.82895398
2,8, 1, 8, 0, 3, 0.00,60.00,Sunday
8,80508482.66019194
2,8, 1, 8, 0, 3, 0.00,60.00,Sunday
9,80508482.66019194
764,80508482.66019195
2,8, 1, 8, 0, 4, 0.00,60.00,Sunday
8,78228018.35347278
2,8, 1, 8, 0, 4, 0.00,60.00,Sunday
9,78228018.35347278
764,78228018.35347278
2,8, 1, 8, 0, 5, 0.00,60.00,Sunday
8,73457322.14298795
2,8, 1, 8, 0, 5, 0.00,60.00,Sunday
9,73457322.14298795
764,73457322.14298797
2,8, 1, 8, 0, 6, 0.00,60.00,Sunday
8,63807709.71775108
2,8, 1, 8, 0, 6, 0.00,60.00,Sunday
9,63807709.71775108
764,63807709.71775107
2,8, 1, 8, 0, 7, 0.00,60.00,Sunday
8,87614123.33548638
2,8, 1, 8, 0, 7, 0.00,60.00,Sunday
9,87614123.33548638
764,87614123.33548638
2,8, 1, 8, 0, 8, 0.00,60.00,Sunday
8,86953851.34730716
2,8, 1, 8, 0, 8, 0.00,60.00,Sunday
9,86953851.34730716
764,86953851.34730718
2,8, 1, 8, 0, 9, 0.00,60.00,Sunday
8,67164058.42260353
2,8, 1, 8, 0, 9, 0.00,60.00,Sunday
9,67164058.42260353
764,67164058.42260352
2,8, 1, 8, 0,10, 0.00,60.00,Sunday
8,73108816.53424461
2,8, 1, 8, 0,10, 0.00,60.00,Sunday
9,73108816.53424461
764,73108816.5342446
2,8, 1, 8, 0,11, 0.00,60.00,Sunday
8,67985735.69009854
2,8, 1, 8, 0,11, 0.00,60.00,Sunday
9,67985735.69009854
764,67985735.69009855
2,8, 1, 8, 0,12, 0.00,60.00,Sunday
8,51298323.15091283
2,8, 1, 8, 0,12, 0.00,60.00,Sunday
9,51298323.15091283
764,51298323.15091282
2,8, 1, 8, 0,13, 0.00,60.00,Sunday
8,45926506.24127061
2,8, 1, 8, 0,13, 0.00,60.00,Sunday
9,45926506.24127061
764,45926506.24127062
2,8, 1, 8, 0,14, 0.00,60.00,Sunday
8,58318703.65628625
2,8, 1, 8, 0,14, 0.00,60.00,Sunday
9,58318703.65628625
764,58318703.65628624
2,8, 1, 8, 0,15, 0.00,60.00,Sunday
8,69299176.27565244
2,8, 1, 8, 0,15, 0.00,60.00,Sunday
9,69299176.27565244
764,69299176.27565244
2,8, 1, 8, 0,16, 0.00,60.00,Sunday
8,67592492.64079978
2,8, 1, 8, 0,16, 0.00,60.00,Sunday
9,67592492.64079978
764,67592492.64079978
2,8, 1, 8, 0,17, 0.00,60.00,Sunday
8,77642520.00613649
2,8, 1, 8, 0,17, 0.00,60.00,Sunday
9,77642520.00613649
764,77642520.00613649
2,8, 1, 8, 0,18, 0.00,60.00,Sunday
8,99204138.54817124
2,8, 1, 8, 0,18, 0.00,60.00,Sunday
9,99204138.54817124
764,99204138.54817125
2,8, 1, 8, 0,19, 0.00,60.00,Sunday
8,100322117.88486862
2,8, 1, 8, 0,19, 0.00,60.00,Sunday
9,100322117.88486862
764,100322117.88486864
2,8, 1, 8, 0,20, 0.00,60.00,Sunday
8,96707021.76104832
2,8, 1, 8, 0,20, 0.00,60.00,Sunday
9,96707021.76104832
764,96707021.76104832
2,8, 1, 8, 0,21, 0.00,60.00,Sunday
8,90939971.59358634
2,8, 1, 8, 0,21, 0.00,60.00,Sunday
9,90939971.59358634
764,90939971.59358634
2,8, 1, 8, 0,22, 0.00,60.00,Sunday
8,90948247.09269121
2,8, 1, 8, 0,22, 0.00,60.00,Sunday
9,90948247.09269121
764,90948247.09269121
2,8, 1, 8, 0,23, 0.00,60.00,Sunday
8,62818524.17238448
2,8, 1, 8, 0,23, 0.00,60.00,Sunday
9,62818524.17238448
764,62818524.17238447
2,8, 1, 8, 0,24, 0.00,60.00,Sunday
8,79429897.92738676
2,8, 1, 8, 0,24, 0.00,60.00,Sunday
9,79429897.92738676
764,79429897.92738679
3,8, 1, 8, 0,Sunday
10,1845773796.9944303,45926506.24127061,13,60,100322117.88486862,19,60
2,9, 1, 9, 0, 1, 0.00,60.00,Monday
8,76706979.41886725
2,9, 1, 9, 0, 1, 0.00,60.00,Monday
9,76706979.41886725
764,76706979.41886725
2,9, 1, 9, 0, 2, 0.00,60.00,Monday
8,80172849.59590565
2,9, 1, 9, 0, 2, 0.00,60.00,Monday
9,80172849.59590565
764,80172849.59590566
2,9, 1, 9, 0, 3, 0.00,60.00,Monday
8,80181063.58158568
2,9, 1, 9, 0, 3, 0.00,60.00,Monday
9,80181063.58158568
764,80181063.58158569
2,9, 1, 9, 0, 4, 0.00,60.00,Monday
8,78001291.93377796
2,9, 1, 9, 0, 4, 0.00,60.00,Monday
9,78001291.93377796
764,78001291.93377794
2,9, 1, 9, 0, 5, 0.00,60.00,Monday
8,55238014.36484299
2,9, 1, 9, 0, 5, 0.00,60.00,Monday
9,55238014.36484299
764,55238014.36484298
2,9, 1, 9, 0, 6, 0.00,60.00,Monday
8,71875380.52352984
2,9, 1, 9, 0, 6, 0.00,60.00,Monday
9,71875380.52352984
764,71875380.52352987
2,9, 1, 9, 0, 7, 0.00,60.00,Monday
8,76826771.93988082
2,9, 1, 9, 0, 7, 0.00,60.00,Monday
9,76826771.93988082
764,76826771.93988083
2,9, 1, 9, 0, 8, 0.00,60.00,Monday
8,69506650.43212765
2,9, 1, 9, 0, 8, 0.00,60.00,Monday
9,69506650.43212765
764,69506650.43212767
2,9, 1, 9, 0, 9, 0.00,60.00,Monday
8,68839784.5136821
2,9, 1, 9, 0, 9, 0.00,60.00,Monday
9,68839784.5136821
764,68839784.5136821
2,9, 1, 9, 0,10, 0.00,60.00,Monday
8,69134376.40371424
2,9, 1, 9, 0,10, 0.00,60.00,Monday
9,69134376.40371424
764,69134376.40371424
2,9, 1, 9, 0,11, 0.00,60.00,Monday
8,64162810.80571799
2,9, 1, 9, 0,11, 0.00,60.00,Monday
9,64162810.80571799
764,64162810.80571799
2,9, 1, 9, 0,12, 0.00,60.00,Monday
8,50237380.60404407
2,9, 1, 9, 0,12, 0.00,60.00,Monday
9,50237380.60404407
764,50237380.60404407
2,9, 1, 9, 0,13, 0.00,60.00,Monday
8,57681520.40095139
2,9, 1, 9, 0,13, 0.00,60.00,Monday
9,57681520.40095139
764,57681520.40095139
2,9, 1, 9, 0,14, 0.00,60.00,Monday
8,52687768.467663355
2,9, 1, 9, 0,14, 0.00,60.00,Monday
9,52687768.467663355
764,52687768.46766336
2,9, 1, 9, 0,15, 0.00,60.00,Monday
8,69546806.2184846
2,9, 1, 9, 0,15, 0.00,60.00,Monday
9,69546806.2184846
764,69546806.21848463
2,9, 1, 9, 0,16, 0.00,60.00,Monday
8,64442381.848036006
2,9, 1, 9, 0,16, 0.00,60.00,Monday
9,64442381.848036006
764,64442381.848036006
2,9, 1, 9, 0,17, 0.00,60.00,Monday
8,60656738.61772034
2,9, 1, 9, 0,17, 0.00,60.00,Monday
9,60656738.61772034
764,60656738.61772034
2,9, 1, 9, 0,18, 0.00,60.00,Monday
8,68244959.74441016
2,9, 1, 9, 0,18, 0.00,60.00,Monday
9,68244959.74441016
764,68244959.74441016
2,9, 1, 9, 0,19, 0.00,60.00,Monday
8,55079266.18620689
2,9, 1, 9, 0,19, 0.00,60.00,Monday
9,55079266.18620689
764,55079266.18620689
2,9, 1, 9, 0,20, 0.00,60.00,Monday