Program Version,EnergyPlus, Version 23.1.0-87ed9199d4, YMD=2023.06.21 09:27
1,5,Environment Title[],Latitude[deg],Longitude[deg],Time Zone[],Elevation[m]
2,8,Day of Simulation[],Month[],Day of Month[],DST Indicator[1=yes 0=no],Hour[],StartMinute[],EndMinute[],DayType
3,5,Cumulative Day of Simulation[],Month[],Day of Month[],DST Indicator[1=yes 0=no],DayType  ! When Daily Report Variables Requested
4,2,Cumulative Days of Simulation[],Month[]  ! When Monthly Report Variables Requested
5,1,Cumulative Days of Simulation[] ! When Run Period Report Variables Requested
6,1,Calendar Year of Simulation[] ! When Annual Report Variables Requested
8,1,Electricity:Facility [J] !TimeStep
2460,1,NaturalGas:Facility [J] !TimeStep
End of Data Dictionary
1,RUN PERIOD 1,  57.75,-152.50,  -9.00,   5.00
2,1, 1, 1, 0, 1, 0.00,60.00,Sunday
8,58685156.600416236
2460,70900715.68271908
2,1, 1, 1, 0, 2, 0.00,60.00,Sunday
8,65038565.821419574
2460,73852619.69840461
2,1, 1, 1, 0, 3, 0.00,60.00,Sunday
8,63611927.438297026
2460,72483922.31920256
2,1, 1, 1, 0, 4, 0.00,60.00,Sunday
8,52424973.59283355
2460,62200032.79337643
2,1, 1, 1, 0, 5, 0.00,60.00,Sunday
8,48748729.09401619
2460,58777068.00643127
2,1, 1, 1, 0, 6, 0.00,60.00,Sunday
8,47083867.652953885
2460,57251140.054467484
2,1, 1, 1, 0, 7, 0.00,60.00,Sunday
8,48128530.98193708
2460,57118759.314248994
2,1, 1, 1, 0, 8, 0.00,60.00,Sunday
8,48138557.49651237
2460,57071031.71810852
2,1, 1, 1, 0, 9, 0.00,60.00,Sunday
8,48080482.58406785
2460,56847155.54920907
2,1, 1, 1, 0,10, 0.00,60.00,Sunday
8,44720254.374466516
2460,53817770.28261712
2,1, 1, 1, 0,11, 0.00,60.00,Sunday
8,35750539.98675036
2460,46336739.28580219
2,1, 1, 1, 0,12, 0.00,60.00,Sunday
8,36129357.42900186
2460,44571926.07779602
2,1, 1, 1, 0,13, 0.00,60.00,Sunday
8,35612326.17119855
2460,44128798.38989161
2,1, 1, 1, 0,14, 0.00,60.00,Sunday
8,35409497.055614546
2460,44612384.003737025
2,1, 1, 1, 0,15, 0.00,60.00,Sunday
8,38697907.04620019
2460,49200269.00332759
2,1, 1, 1, 0,16, 0.00,60.00,Sunday
8,39358779.04402231
2460,50927569.74750212
2,1, 1, 1, 0,17, 0.00,60.00,Sunday
8,44960085.7263165
2460,54353025.20227908
2,1, 1, 1, 0,18, 0.00,60.00,Sunday
8,46167909.647688195
2460,55092011.30364483
2,1, 1, 1, 0,19, 0.00,60.00,Sunday
8,46385897.960874766
2460,55465153.80697319
2,1, 1, 1, 0,20, 0.00,60.00,Sunday
8,48200489.95332221
2460,56949044.426992446
2,1, 1, 1, 0,21, 0.00,60.00,Sunday
8,48435799.469022505
2460,57139909.2631565
2,1, 1, 1, 0,22, 0.00,60.00,Sunday
8,48557133.73373974
2460,57264026.09059958
2,1, 1, 1, 0,23, 0.00,60.00,Sunday
8,50753304.13569384
2460,59315337.743588306
2,1, 1, 1, 0,24, 0.00,60.00,Sunday
8,52620982.07520055
2460,61054672.20936456
2,2, 1, 2, 0, 1, 0.00,60.00,Monday
8,63529224.525020435
2460,61979703.181343265
2,2, 1, 2, 0, 2, 0.00,60.00,Monday
8,63780866.6712212
2460,62500764.24019205
2,2, 1, 2, 0, 3, 0.00,60.00,Monday
8,65873151.504578464
2460,64551278.639743626
2,2, 1, 2, 0, 4, 0.00,60.00,Monday
8,64040361.540041946
2460,62977217.95052574
2,2, 1, 2, 0, 5, 0.00,60.00,Monday
8,64107978.625567794
2460,63088922.88600109
2,2, 1, 2, 0, 6, 0.00,60.00,Monday
8,64228421.53062394
2460,63264094.6499065
2,2, 1, 2, 0, 7, 0.00,60.00,Monday
8,66990407.96208478
2460,92244239.00512211
2,2, 1, 2, 0, 8, 0.00,60.00,Monday
8,73366668.03804173
2460,91883902.25192884
2,2, 1, 2, 0, 9, 0.00,60.00,Monday
8,117830623.05963933
2460,78582668.93838713
2,2, 1, 2, 0,10, 0.00,60.00,Monday
8,119752514.63089395
2460,73504367.31410629
2,2, 1, 2, 0,11, 0.00,60.00,Monday
8,111438651.2661589
2460,62963061.67883963
2,2, 1, 2, 0,12, 0.00,60.00,Monday
8,108857559.42541432
2460,58140174.621552646
2,2, 1, 2, 0,13, 0.00,60.00,Monday
8,63451909.496738456
2460,57551382.14946448
2,2, 1, 2, 0,14, 0.00,60.00,Monday
8,107923656.5211887
2460,56272701.38373821
2,2, 1, 2, 0,15, 0.00,60.00,Monday
8,109484020.83356409
2460,59447613.8162331
2,2, 1, 2, 0,16, 0.00,60.00,Monday
8,115002765.9717006
2460,66631619.74330411
2,2, 1, 2, 0,17, 0.00,60.00,Monday
8,116760228.76351203
2460,69111268.04940452
2,2, 1, 2, 0,18, 0.00,60.00,Monday
8,68341555.02561532
2460,74987826.2088387
2,2, 1, 2, 0,19, 0.00,60.00,Monday
8,69434462.67950292
2460,51385489.72623764
2,2, 1, 2, 0,20, 0.00,60.00,Monday
8,72640984.44922127
2460,57533147.55689496
2,2, 1, 2, 0,21, 0.00,60.00,Monday
8,76081367.5350537
2460,63396183.62537128
2,2, 1, 2, 0,22, 0.00,60.00,Monday
8,78814145.82930878
2460,68908262.31668141
2,2, 1, 2, 0,23, 0.00,60.00,Monday
8,81561643.2487128
2460,73220214.14356668
2,2, 1, 2, 0,24, 0.00,60.00,Monday
8,80102169.38409722
2460,72837359.99003261
2,3, 1, 3, 0, 1, 0.00,60.00,Tuesday
8,83509092.61911438
2460,77574355.24633972
2,3, 1, 3, 0, 2, 0.00,60.00,Tuesday
8,85628760.42263381
2460,79972334.77653416
2,3, 1, 3, 0, 3, 0.00,60.00,Tuesday
8,88074159.9464875
2460,82576127.50613144
2,3, 1, 3, 0, 4, 0.00,60.00,Tuesday
8,84687869.75213735
2460,79801868.94849595
2,3, 1, 3, 0, 5, 0.00,60.00,Tuesday
8,84760711.88070135
2460,80059353.41196476
2,3, 1, 3, 0, 6, 0.00,60.00,Tuesday
8,80762631.49253929
2460,76585441.57296868
2,3, 1, 3, 0, 7, 0.00,60.00,Tuesday
8,85567058.12651688
2460,106929752.77981913
2,3, 1, 3, 0, 8, 0.00,60.00,Tuesday
8,90139454.46627015
2460,102823324.28097889
2,3, 1, 3, 0, 9, 0.00,60.00,Tuesday
8,138687478.69133154
2460,96477436.61004315
2,3, 1, 3, 0,10, 0.00,60.00,Tuesday
8,140780292.76833415
2460,91686260.06299135
2,3, 1, 3, 0,11, 0.00,60.00,Tuesday
8,133327398.40598036
2460,84733770.96386656
2,3, 1, 3, 0,12, 0.00,60.00,Tuesday
8,125012489.75368153
2460,76708934.63822354
2,3, 1, 3, 0,13, 0.00,60.00,Tuesday
8,75877429.50359385
2460,72607361.45841317
2,3, 1, 3, 0,14, 0.00,60.00,Tuesday
8,116895296.64883885
2460,68880784.32670583
2,3, 1, 3, 0,15, 0.00,60.00,Tuesday
8,118178063.13984892
2460,70384646.16293985
2,3, 1, 3, 0,16, 0.00,60.00,Tuesday
8,119683601.78224987
2460,71199470.69576219
2,3, 1, 3, 0,17, 0.00,60.00,Tuesday
8,121178012.49742427
2460,72793486.16412926
2,3, 1, 3, 0,18, 0.00,60.00,Tuesday
8,71057329.04737586
2460,76310573.73038183
2,3, 1, 3, 0,19, 0.00,60.00,Tuesday
8,65711402.981563635
2460,47624187.097725786
2,3, 1, 3, 0,20, 0.00,60.00,Tuesday
8,66666683.647543944
2460,52110470.0211117
2,3, 1, 3, 0,21, 0.00,60.00,Tuesday
8,69773073.64810547
2460,57272880.58560982
2,3, 1, 3, 0,22, 0.00,60.00,Tuesday
8,70711688.1859068
2460,61101611.931291044
2,3, 1, 3, 0,23, 0.00,60.00,Tuesday
8,73042977.96089348
2460,65150252.616082154
2,3, 1, 3, 0,24, 0.00,60.00,Tuesday
8,77192741.25896832
2460,69829264.80360909
2,4, 1, 4, 0, 1, 0.00,60.00,Wednesday
8,78647295.26526704
2460,72897834.35313752
2,4, 1, 4, 0, 2, 0.00,60.00,Wednesday
8,77061724.1122665
2460,71945933.81698681
2,4, 1, 4, 0, 3, 0.00,60.00,Wednesday
8,79343294.05189858
2460,74369080.93118423
2,4, 1, 4, 0, 4, 0.00,60.00,Wednesday
8,79541134.63246891
2460,74833870.9775578
2,4, 1, 4, 0, 5, 0.00,60.00,Wednesday
8,79819740.70514245
2460,75378153.43446842
2,4, 1, 4, 0, 6, 0.00,60.00,Wednesday
8,79881847.76421216
2460,75645627.20448276
2,4, 1, 4, 0, 7, 0.00,60.00,Wednesday
8,80661791.20995821
2460,102182338.71857126
2,4, 1, 4, 0, 8, 0.00,60.00,Wednesday
8,87178588.44133073
2460,99892336.16511823
2,4, 1, 4, 0, 9, 0.00,60.00,Wednesday
8,131524872.41143145
2460,89824867.98811445
2,4, 1, 4, 0,10, 0.00,60.00,Wednesday
8,129752191.55945441
2460,81484140.15517747
2,4, 1, 4, 0,11, 0.00,60.00,Wednesday
8,119124336.54584238
2460,71845512.76708679
2,4, 1, 4, 0,12, 0.00,60.00,Wednesday
8,111132640.01229286
2460,63279537.66291947
2,4, 1, 4, 0,13, 0.00,60.00,Wednesday
8,65138325.98978005
2460,61888196.73643316
2,4, 1, 4, 0,14, 0.00,60.00,Wednesday
8,109754835.86430506
2460,60573716.83834942
2,4, 1, 4, 0,15, 0.00,60.00,Wednesday
8,112891809.80994013
2460,65065444.83002681
2,4, 1, 4, 0,16, 0.00,60.00,Wednesday
8,116952202.63540202
2460,68687050.3925472
2,4, 1, 4, 0,17, 0.00,60.00,Wednesday
8,118021290.44381827
2460,69939288.8561578
2,4, 1, 4, 0,18, 0.00,60.00,Wednesday
8,69345770.19338389
2460,74807129.63772222
2,4, 1, 4, 0,19, 0.00,60.00,Wednesday
8,64389417.49279996
2460,46590818.32281821
2,4, 1, 4, 0,20, 0.00,60.00,Wednesday
8,53278018.84416635
2460,39990902.10294677
2,4, 1, 4, 0,21, 0.00,60.00,Wednesday
8,58705051.34349295
2460,47539053.231108345
2,4, 1, 4, 0,22, 0.00,60.00,Wednesday
8,61502700.10142401
2460,52281871.361363895
2,4, 1, 4, 0,23, 0.00,60.00,Wednesday
8,63498864.1640286
2460,56478135.030365326
2,4, 1, 4, 0,24, 0.00,60.00,Wednesday
8,65845600.94723045
2460,59240965.76573004
2,5, 1, 5, 0, 1, 0.00,60.00,Thursday
8,68940753.96983418
2460,63881640.57155976
2,5, 1, 5, 0, 2, 0.00,60.00,Thursday
8,71299163.11895964
2460,66513954.37964889
2,5, 1, 5, 0, 3, 0.00,60.00,Thursday
8,75220446.23689553
2460,70430880.89214444
2,5, 1, 5, 0, 4, 0.00,60.00,Thursday
8,77195481.77035943
2460,72582356.46710248
2,5, 1, 5, 0, 5, 0.00,60.00,Thursday
8,79347230.62837115
2460,74827301.09335908
2,5, 1, 5, 0, 6, 0.00,60.00,Thursday
8,83432463.95798016
2460,78817130.67105746
2,5, 1, 5, 0, 7, 0.00,60.00,Thursday
8,90141378.08889987
2460,110762855.55522518
2,5, 1, 5, 0, 8, 0.00,60.00,Thursday
8,98588603.41744395
2460,110433515.92295538
2,5, 1, 5, 0, 9, 0.00,60.00,Thursday
8,145068943.60351172
2460,102236541.1530908
2,5, 1, 5, 0,10, 0.00,60.00,Thursday
8,145446108.91621968
2460,95889803.6792496
2,5, 1, 5, 0,11, 0.00,60.00,Thursday
8,137711326.48904914
2460,88147484.6174312
2,5, 1, 5, 0,12, 0.00,60.00,Thursday
8,133960940.96828614
2460,84161725.09229648
2,5, 1, 5, 0,13, 0.00,60.00,Thursday
8,89253624.19963911
2460,84487064.42181557
2,5, 1, 5, 0,14, 0.00,60.00,Thursday
8,134454651.68199462
2460,85352490.49185513
2,5, 1, 5, 0,15, 0.00,60.00,Thursday
8,136109349.43727905
2460,86800664.1562475
2,5, 1, 5, 0,16, 0.00,60.00,Thursday
8,141403719.90841073
2460,91367686.25158468
2,5, 1, 5, 0,17, 0.00,60.00,Thursday
8,146312100.36013
2460,95504409.48706648
2,5, 1, 5, 0,18, 0.00,60.00,Thursday
8,96938656.30266535
2460,99740576.12815869
2,5, 1, 5, 0,19, 0.00,60.00,Thursday
8,93933841.27607602
2460,72665982.2656242
2,5, 1, 5, 0,20, 0.00,60.00,Thursday
8,95170186.74132316
2460,77598618.69935681
2,5, 1, 5, 0,21, 0.00,60.00,Thursday
8,98151476.11695246
2460,83394384.4945549
2,5, 1, 5, 0,22, 0.00,60.00,Thursday
8,97421606.90141374
2460,85931392.19696602
2,5, 1, 5, 0,23, 0.00,60.00,Thursday
8,98102684.2281894
2460,88373663.52530885
2,5, 1, 5, 0,24, 0.00,60.00,Thursday
8,98691696.85663445
2460,89946436.56265894
2,6, 1, 6, 0, 1, 0.00,60.00,Friday
8,97979242.31654797
2460,90946642.73104091
2,6, 1, 6, 0, 2, 0.00,60.00,Friday
8,100125348.28606397
2460,93397828.67989293
2,6, 1, 6, 0, 3, 0.00,60.00,Friday
8,98711714.3745692
2460,92494707.02091186
2,6, 1, 6, 0, 4, 0.00,60.00,Friday
8,100772362.27161042
2460,94742503.72458127
2,6, 1, 6, 0, 5, 0.00,60.00,Friday
8,100984382.74782716
2460,95242614.12412558
2,6, 1, 6, 0, 6, 0.00,60.00,Friday
8,101224807.47398852
2460,95738214.01797733
2,6, 1, 6, 0, 7, 0.00,60.00,Friday
8,102098691.74086514
2460,122701463.52832131
2,6, 1, 6, 0, 8, 0.00,60.00,Friday
8,106466281.34270963
2460,118273232.8313666
2,6, 1, 6, 0, 9, 0.00,60.00,Friday
8,152881090.45624757
2460,109729733.73880664
2,6, 1, 6, 0,10, 0.00,60.00,Friday
8,154882491.1790889
2460,104772700.49615821
2,6, 1, 6, 0,11, 0.00,60.00,Friday
8,149400401.55673024
2460,99530897.6652272
2,6, 1, 6, 0,12, 0.00,60.00,Friday
8,145939422.38148463
2460,95340613.08796607
2,6, 1, 6, 0,13, 0.00,60.00,Friday
8,98880517.20963852
2460,93449203.36874741
2,6, 1, 6, 0,14, 0.00,60.00,Friday
8,144064541.0605527
2460,94232732.15785445
2,6, 1, 6, 0,15, 0.00,60.00,Friday
8,146377352.09498823
2460,95519974.04885006
2,6, 1, 6, 0,16, 0.00,60.00,Friday
8,149219448.80016193
2460,98074483.43676236
2,6, 1, 6, 0,17, 0.00,60.00,Friday
8,147340057.8307585
2460,99453619.78761949
2,6, 1, 6, 0,18, 0.00,60.00,Friday
8,100546702.30474962
2460,103108446.5775288
2,6, 1, 6, 0,19, 0.00,60.00,Friday
8,93320319.06600745
2460,71954716.25847512
2,6, 1, 6, 0,20, 0.00,60.00,Friday
8,94290507.63141283
2460,76722788.75310625
2,6, 1, 6, 0,21, 0.00,60.00,Friday
8,95665140.48015778
2460,81353839.75035174
2,6, 1, 6, 0,22, 0.00,60.00,Friday
8,98733305.2138296
2460,87332989.10556604
2,6, 1, 6, 0,23, 0.00,60.00,Friday
8,97268518.00612201
2460,87728625.03794762
2,6, 1, 6, 0,24, 0.00,60.00,Friday
8,95945613.3491583
2460,87512361.62567888
2,7, 1, 7, 0, 1, 0.00,60.00,Saturday
8,93736085.1426592
2460,114534335.79566114
2,7, 1, 7, 0, 2, 0.00,60.00,Saturday
8,95394563.39162844
2460,112164591.7851263
2,7, 1, 7, 0, 3, 0.00,60.00,Saturday
8,93899423.92348874
2460,72837868.65538181
2,7, 1, 7, 0, 4, 0.00,60.00,Saturday
8,90552998.12255366
2460,73841628.12902611
2,7, 1, 7, 0, 5, 0.00,60.00,Saturday
8,93018319.68462466
2460,79082906.4812178
2,7, 1, 7, 0, 6, 0.00,60.00,Saturday
8,93546762.59309702
2460,82631016.03642483
2,7, 1, 7, 0, 7, 0.00,60.00,Saturday
8,94680729.62325826
2460,83752259.8602608
2,7, 1, 7, 0, 8, 0.00,60.00,Saturday
8,91054484.6651813
2460,80979626.79866539
2,7, 1, 7, 0, 9, 0.00,60.00,Saturday
8,129526806.14601254
2460,76962957.87394084
2,7, 1, 7, 0,10, 0.00,60.00,Saturday
8,127667501.57378751
2460,75516841.33079986
2,7, 1, 7, 0,11, 0.00,60.00,Saturday
8,122664049.4254347
2460,72806593.92191124
2,7, 1, 7, 0,12, 0.00,60.00,Saturday
8,121565115.45822673
2460,71621877.44929016
2,7, 1, 7, 0,13, 0.00,60.00,Saturday
8,77148773.33924486
2460,70950625.57072602
2,7, 1, 7, 0,14, 0.00,60.00,Saturday
8,121046064.72107221
2460,72212424.13562982
2,7, 1, 7, 0,15, 0.00,60.00,Saturday
8,122878965.1352103
2460,74183647.40527666
2,7, 1, 7, 0,16, 0.00,60.00,Saturday
8,122140298.39056829
2460,73973769.35278407
2,7, 1, 7, 0,17, 0.00,60.00,Saturday
8,124506382.62145737
2460,76576464.32675472
2,7, 1, 7, 0,18, 0.00,60.00,Saturday
8,89715475.24200673
2460,81453155.88150264
2,7, 1, 7, 0,19, 0.00,60.00,Saturday
8,90198885.42164294
2460,81997747.30396952
2,7, 1, 7, 0,20, 0.00,60.00,Saturday
8,90529932.39161561
2460,82344490.31392664
2,7, 1, 7, 0,21, 0.00,60.00,Saturday
8,90725246.68100463
2460,82545750.66827819
2,7, 1, 7, 0,22, 0.00,60.00,Saturday
8,88882299.11011986
2460,80921719.17523542
2,7, 1, 7, 0,23, 0.00,60.00,Saturday
8,87737093.26808219
2460,108292199.8716977
2,7, 1, 7, 0,24, 0.00,60.00,Saturday
8,89185794.3802808
2460,108011946.5269627
2,8, 1, 8, 0, 1, 0.00,60.00,Sunday
8,67909286.13229065
2460,66186554.615279205
2,8, 1, 8, 0, 2, 0.00,60.00,Sunday
8,70473952.99790138
2460,70027104.74872756
2,8, 1, 8, 0, 3, 0.00,60.00,Sunday
8,70889858.48037802
2460,73728413.4061112
2,8, 1, 8, 0, 4, 0.00,60.00,Sunday
8,71298125.84605244
2460,76888094.2638241
2,8, 1, 8, 0, 5, 0.00,60.00,Sunday
8,71449632.9212924
2460,78002399.09681946
2,8, 1, 8, 0, 6, 0.00,60.00,Sunday
8,67892847.77208655
2460,75193979.01380357
2,8, 1, 8, 0, 7, 0.00,60.00,Sunday
8,65417474.206668034
2460,72183799.85773152
2,8, 1, 8, 0, 8, 0.00,60.00,Sunday
8,63889191.02867128
2460,70885348.19123124
2,8, 1, 8, 0, 9, 0.00,60.00,Sunday
8,63861932.371645324
2460,70815212.68476945
2,8, 1, 8, 0,10, 0.00,60.00,Sunday
8,63851506.882447824
2460,70815755.33025719
2,8, 1, 8, 0,11, 0.00,60.00,Sunday
8,60995521.478956774
2460,70090468.6559005
2,8, 1, 8, 0,12, 0.00,60.00,Sunday
8,57983701.263053335
2460,66612261.23104541
2,8, 1, 8, 0,13, 0.00,60.00,Sunday
8,57850888.311874256
2460,67097800.42390876
2,8, 1, 8, 0,14, 0.00,60.00,Sunday
8,59691802.25578241
2460,69156208.19383489
2,8, 1, 8, 0,15, 0.00,60.00,Sunday
8,62250407.31560896
2460,71767368.43516082
2,8, 1, 8, 0,16, 0.00,60.00,Sunday
8,64475135.44534318
2460,74122584.54147916
2,8, 1, 8, 0,17, 0.00,60.00,Sunday
8,68741540.25689939
2460,78308076.93338595
2,8, 1, 8, 0,18, 0.00,60.00,Sunday
8,74428502.58734675
2460,80682031.92904559
2,8, 1, 8, 0,19, 0.00,60.00,Sunday
8,76759874.128955
2460,82921799.19296654
2,8, 1, 8, 0,20, 0.00,60.00,Sunday
8,76950525.71503042
2460,83155411.03413749
2,8, 1, 8, 0,21, 0.00,60.00,Sunday
8,75046490.79693425
2460,81460549.94865333
2,8, 1, 8, 0,22, 0.00,60.00,Sunday
8,75035390.2559384
2460,81461680.85890034
2,8, 1, 8, 0,23, 0.00,60.00,Sunday
8,75081014.929173
2460,81537946.32471882
2,8, 1, 8, 0,24, 0.00,60.00,Sunday
8,75112082.43381244
2460,81582726.86388761
2,9, 1, 9, 0, 1, 0.00,60.00,Monday
8,83827640.48906228
2460,80518176.56951547
2,9, 1, 9, 0, 2, 0.00,60.00,Monday
8,83846604.43755636
2460,80787166.03139825
2,9, 1, 9, 0, 3, 0.00,60.00,Monday
8,83870077.14566956
2460,80943053.18587331
2,9, 1, 9, 0, 4, 0.00,60.00,Monday
8,84031632.2637044
2460,81230984.50745505
2,9, 1, 9, 0, 5, 0.00,60.00,Monday
8,84227191.57658459
2460,81542451.0578799
2,9, 1, 9, 0, 6, 0.00,60.00,Monday
8,82392822.73317243
2460,79893261.31328115
2,9, 1, 9, 0, 7, 0.00,60.00,Monday
8,85034074.30659176
2460,109151304.5048336
2,9, 1, 9, 0, 8, 0.00,60.00,Monday
8,87311317.68727624
2460,104886740.74101207
2,9, 1, 9, 0, 9, 0.00,60.00,Monday
8,129849873.95276369
2460,89563885.45773655
2,9, 1, 9, 0,10, 0.00,60.00,Monday
8,133578215.78420834
2460,85775007.26886284
2,9, 1, 9, 0,11, 0.00,60.00,Monday
8,127202659.27540548
2460,80757987.97619697
2,9, 1, 9, 0,12, 0.00,60.00,Monday
8,124200520.14305262
2460,77505748.5402366
2,9, 1, 9, 0,13, 0.00,60.00,Monday
8,78171365.70403738
2460,75685438.69231068
2,9, 1, 9, 0,14, 0.00,60.00,Monday
8,119921718.68260486
2460,72529226.46597216
2,9, 1, 9, 0,15, 0.00,60.00,Monday
8,121440472.23914596
2460,73330818.76197106
2,9, 1, 9, 0,16, 0.00,60.00,Monday
8,116078126.97288129
2460,68292235.56747091
2,9, 1, 9, 0,17, 0.00,60.00,Monday
8,115409512.41555399
2460,70863965.58223328
2,9, 1, 9, 0,18, 0.00,60.00,Monday
8,68271821.51466496
2460,74079413.24453789
2,9, 1, 9, 0,19, 0.00,60.00,Monday
8,64630791.847412236
2460,46191202.71726061
2,9, 1, 9, 0,20, 0.00,60.00,Monday
8,65392907.247897394
2460,50627329.93875019
2,9, 1, 9, 0,21, 0.00,60.00,Monday
8,64455435.65745729
2460,53078026.585094385
2,9, 1, 9, 0,22, 0.00,60.00,Monday
8,65056547.891187005
2460,56838391.58902231
2,9, 1, 9, 0,23, 0.00,60.00,Monday
8,71198562.02481875
2460,63964400.273039445
2,9, 1, 9, 0,24, 0.00,60.00,Monday
8,71483106.23618975
2460,65190475.51644403
2,10, 1,10, 0, 1, 0.00,60.00,Tuesday
8,66890994.85547487
2460,62532547.46678506
2,10, 1,10, 0, 2, 0.00,60.00,Tuesday
8,70703726.94383606
2460,66407243.88538888
2,10, 1,10, 0, 3, 0.00,60.00,Tuesday
8,67407295.25708339
2460,63798905.23871646
2,10, 1,10, 0, 4, 0.00,60.00,Tuesday
8,69229624.70302288
2460,65623282.348420985
2,10, 1,10, 0, 5, 0.00,60.00,Tuesday
8,70947082.24779558
2460,67417731.0215222
2,10, 1,10, 0, 6, 0.00,60.00,Tuesday
8,73236974.96673177
2460,69788872.25667056
2,10, 1,10, 0, 7, 0.00,60.00,Tuesday
8,79823655.59828927
2460,101905556.12501715
2,10, 1,10, 0, 8, 0.00,60.00,Tuesday
8,87978553.85070099
2460,100991764.87502703
2,10, 1,10, 0, 9, 0.00,60.00,Tuesday
8,130721752.6478657
2460,89138287.1892239
2,10, 1,10, 0,10, 0.00,60.00,Tuesday
8,134037829.77254175
2460,85310237.90262856
2,10, 1,10, 0,11, 0.00,60.00,Tuesday
8,122028059.2134143
2460,74900203.58172542
2,10, 1,10, 0,12, 0.00,60.00,Tuesday
8,113239210.9415371
2460,66607300.07654073
2,10, 1,10, 0,13, 0.00,60.00,Tuesday
8,64102811.33289705
2460,60910276.75780732
2,10, 1,10, 0,14, 0.00,60.00,Tuesday
8,108974971.87007312
2460,59501488.44393088
2,10, 1,10, 0,15, 0.00,60.00,Tuesday
8,109652083.0925634
2460,60235745.892252065
2,10, 1,10, 0,16, 0.00,60.00,Tuesday
8,111480724.86346453
2460,63614621.13896482
2,10, 1,10, 0,17, 0.00,60.00,Tuesday
8,109810462.07150102
2460,65331076.98784276
2,10, 1,10, 0,18, 0.00,60.00,Tuesday
8,62303651.60652138
2460,68731621.56134361
2,10, 1,10, 0,19, 0.00,60.00,Tuesday
8,57109317.4368491
2460,40270109.38730124
2,10, 1,10, 0,20, 0.00,60.00,Tuesday
8,58156883.441183984
2460,44555025.886817515
2,10, 1,10, 0,21, 0.00,60.00,Tuesday
8,59172764.85275128
2460,47824429.79044319
2,10, 1,10, 0,22, 0.00,60.00,Tuesday
8,59957599.321681716
2460,51298351.36449699
2,10, 1,10, 0,23, 0.00,60.00,Tuesday
8,60403182.41747939
2460,53594929.63119328
2,10, 1,10, 0,24, 0.00,60.00,Tuesday
8,60644733.539266564
2460,54649163.17424237
2,11, 1,11, 0, 1, 0.00,60.00,Wednesday
8,59623876.728415765
2460,55297599.88511147
2,11, 1,11, 0, 2, 0.00,60.00,Wednesday
8,59798973.50096792
2460,55891362.42397003
2,11, 1,11, 0, 3, 0.00,60.00,Wednesday
8,58314456.53742915
2460,54882511.90855743
2,11, 1,11, 0, 4, 0.00,60.00,Wednesday
8,58376021.1097852
2460,55202284.43858423
2,11, 1,11, 0, 5, 0.00,60.00,Wednesday
8,54957511.27435279
2460,52370639.50240677
2,11, 1,11, 0, 6, 0.00,60.00,Wednesday
8,58419001.260111175
2460,55664541.48187048
2,11, 1,11, 0, 7, 0.00,60.00,Wednesday
8,62713936.23219075
2460,84969481.63750514
2,11, 1,11, 0, 8, 0.00,60.00,Wednesday
8,67158494.86858344
2460,80878791.3196171
2,11, 1,11, 0, 9, 0.00,60.00,Wednesday
8,110083240.75640227
2460,69929353.81227058
2,11, 1,11, 0,10, 0.00,60.00,Wednesday
8,112718994.72665267
2460,64833957.04361524
2,11, 1,11, 0,11, 0.00,60.00,Wednesday
8,108536518.96461537
2460,60540762.9290743
2,11, 1,11, 0,12, 0.00,60.00,Wednesday
8,108534606.30645601
2460,59797978.75253849
2,11, 1,11, 0,13, 0.00,60.00,Wednesday
8,63513431.50049245
2460,59981970.18225172
2,11, 1,11, 0,14, 0.00,60.00,Wednesday
8,107674567.83775827
2460,57056646.41051516
2,11, 1,11, 0,15, 0.00,60.00,Wednesday
8,107736639.3968673
2460,56458519.096231714
2,11, 1,11, 0,16, 0.00,60.00,Wednesday
8,108498673.93568927
2460,57623008.54252859
2,11, 1,11, 0,17, 0.00,60.00,Wednesday
8,105842590.93423338
2460,58724059.350916535
2,11, 1,11, 0,18, 0.00,60.00,Wednesday
8,55293722.31263609
2460,58876354.00558778
2,11, 1,11, 0,19, 0.00,60.00,Wednesday
8,51256856.705982246
2460,33402503.251578584
2,11, 1,11, 0,20, 0.00,60.00,Wednesday
8,51179049.09987281
2460,36735439.891263194
2,11, 1,11, 0,21, 0.00,60.00,Wednesday
8,51363169.19939488
2460,39502496.14299802
2,11, 1,11, 0,22, 0.00,60.00,Wednesday
8,51532095.21937175
2460,42386195.51467725
2,11, 1,11, 0,23, 0.00,60.00,Wednesday
8,51660405.417626135
2460,44676581.41716044
2,11, 1,11, 0,24, 0.00,60.00,Wednesday
8,51750796.4481798
2460,45888934.33593351
2,12, 1,12, 0, 1, 0.00,60.00,Thursday
8,50710893.92700682
2460,46723677.639419034
2,12, 1,12, 0, 2, 0.00,60.00,Thursday
8,50768645.79450044
2460,47356988.49727609
2,12, 1,12, 0, 3, 0.00,60.00,Thursday
8,50811576.786429316
2460,47817632.16378347
2,12, 1,12, 0, 4, 0.00,60.00,Thursday
8,50837691.90043608
2460,48157743.83175012
2,12, 1,12, 0, 5, 0.00,60.00,Thursday
8,50880047.19553999
2460,48451636.40159674
2,12, 1,12, 0, 6, 0.00,60.00,Thursday
8,50927304.83737748
2460,48687705.43395073
2,12, 1,12, 0, 7, 0.00,60.00,Thursday
8,52815579.72560077
2460,74578284.51475808
2,12, 1,12, 0, 8, 0.00,60.00,Thursday
8,58110383.83298066
2460,70649295.39815229
2,12, 1,12, 0, 9, 0.00,60.00,Thursday
8,106778354.48783308
2460,63408275.748922355
2,12, 1,12, 0,10, 0.00,60.00,Thursday
8,108889192.38751385
2460,56642018.37748253
2,12, 1,12, 0,11, 0.00,60.00,Thursday
8,105555400.3063404
2460,52961126.059311226
2,12, 1,12, 0,12, 0.00,60.00,Thursday
8,105051722.98701127
2460,51379543.673968226
2,12, 1,12, 0,13, 0.00,60.00,Thursday
8,59582384.213286005
2460,51351398.00009476
2,12, 1,12, 0,14, 0.00,60.00,Thursday
8,104500376.8870588
2460,48138163.991242915
2,12, 1,12, 0,15, 0.00,60.00,Thursday
8,104585369.59286475
2460,47496146.5878913
2,12, 1,12, 0,16, 0.00,60.00,Thursday
8,105082662.33798961
2460,48790239.41812541
2,12, 1,12, 0,17, 0.00,60.00,Thursday
8,102352036.93921839
2460,49957079.91914201
2,12, 1,12, 0,18, 0.00,60.00,Thursday
8,52810284.12294221
2460,53105007.46689736
2,12, 1,12, 0,19, 0.00,60.00,Thursday
8,49232782.416527815
2460,30618656.714376852
2,12, 1,12, 0,20, 0.00,60.00,Thursday
8,49095237.20854415
2460,33490675.03735015
2,12, 1,12, 0,21, 0.00,60.00,Thursday
8,49343232.97322155
2460,36136175.03324399
2,12, 1,12, 0,22, 0.00,60.00,Thursday
8,49645251.152334675
2460,38670875.58300803
2,12, 1,12, 0,23, 0.00,60.00,Thursday
8,49834370.29651984
2460,40418881.11814367
2,12, 1,12, 0,24, 0.00,60.00,Thursday
8,49989393.184109464
2460,42075106.094363615
2,13, 1,13, 0, 1, 0.00,60.00,Friday
8,48989493.76342248
2460,42842649.919394836
2,13, 1,13, 0, 2, 0.00,60.00,Friday
8,49087454.39986678
2460,43665050.67612498
2,13, 1,13, 0, 3, 0.00,60.00,Friday
8,49160879.18579027
2460,44230306.50208512
2,13, 1,13, 0, 4, 0.00,60.00,Friday
8,49292629.10188641
2460,44920342.343503475
2,13, 1,13, 0, 5, 0.00,60.00,Friday
8,50164526.305143654
2460,46932976.1933038
2,13, 1,13, 0, 6, 0.00,60.00,Friday
8,51870935.45101838
2460,50399040.69772586
2,13, 1,13, 0, 7, 0.00,60.00,Friday
8,53907398.083256185
2460,76232002.96425274
2,13, 1,13, 0, 8, 0.00,60.00,Friday
8,59287832.163438834
2460,72737633.22387958
2,13, 1,13, 0, 9, 0.00,60.00,Friday
8,108793611.71052508
2460,67217195.16972122
2,13, 1,13, 0,10, 0.00,60.00,Friday
8,109301358.28561385
2460,57952658.13383424
2,13, 1,13, 0,11, 0.00,60.00,Friday
8,104058313.0518749
2460,46517090.37051359
2,13, 1,13, 0,12, 0.00,60.00,Friday
8,103681490.04775152
2460,41910631.85355828
2,13, 1,13, 0,13, 0.00,60.00,Friday
8,57987773.419735275
2460,40760024.57376606
2,13, 1,13, 0,14, 0.00,60.00,Friday
8,103891632.24295826
2460,41867454.36140446
2,13, 1,13, 0,15, 0.00,60.00,Friday
8,104029962.20028141
2460,41132400.33888264
2,13, 1,13, 0,16, 0.00,60.00,Friday
8,105281063.41220666
2460,50448378.19232184
2,13, 1,13, 0,17, 0.00,60.00,Friday
8,105142090.7507251
2460,59365319.2836355
2,13, 1,13, 0,18, 0.00,60.00,Friday
8,57479927.2483002
2460,63692164.83678976
2,13, 1,13, 0,19, 0.00,60.00,Friday
8,56166342.32003293
2460,42964480.69865933
2,13, 1,13, 0,20, 0.00,60.00,Friday
8,56073277.18705487
2460,45428790.27133649
2,13, 1,13, 0,21, 0.00,60.00,Friday
8,59270798.60036832
2460,50321065.95535625
2,13, 1,13, 0,22, 0.00,60.00,Friday
8,60980912.36999889
2460,53061532.0485554
2,13, 1,13, 0,23, 0.00,60.00,Friday
8,63578438.34026905
2460,56840906.609253824
2,13, 1,13, 0,24, 0.00,60.00,Friday
8,64433208.9823292
2460,58602375.03513147
2,14, 1,14, 0, 1, 0.00,60.00,Saturday
8,66541525.4778546
2460,87883168.69309305
2,14, 1,14, 0, 2, 0.00,60.00,Saturday
8,66679038.85155006
2460,85265464.22113714
2,14, 1,14, 0, 3, 0.00,60.00,Saturday
8,65253370.626431964
2460,48629848.13456471
2,14, 1,14, 0, 4, 0.00,60.00,Saturday
8,65770997.529581405
2460,52260846.08718085
2,14, 1,14, 0, 5, 0.00,60.00,Saturday
8,64527514.66324603
2460,53305252.84490101
2,14, 1,14, 0, 6, 0.00,60.00,Saturday
8,63040575.66428752
2460,54582712.2151655
2,14, 1,14, 0, 7, 0.00,60.00,Saturday
8,60949836.090931386
2460,52694072.77961953
2,14, 1,14, 0, 8, 0.00,60.00,Saturday
8,62850530.182900466
2460,55049401.941954695
2,14, 1,14, 0, 9, 0.00,60.00,Saturday
8,103889620.55042347
2460,53374148.79239645
2,14, 1,14, 0,10, 0.00,60.00,Saturday
8,101912077.90941447
2460,51836545.67897096
2,14, 1,14, 0,11, 0.00,60.00,Saturday
8,95662843.77393688
2460,46703880.927315675
2,14, 1,14, 0,12, 0.00,60.00,Saturday
8,93034839.91774753
2460,41920715.284113
2,14, 1,14, 0,13, 0.00,60.00,Saturday
8,51469216.23659249
2460,47603681.079075366
2,14, 1,14, 0,14, 0.00,60.00,Saturday
8,93760358.83230622
2460,44384975.261636175
2,14, 1,14, 0,15, 0.00,60.00,Saturday
8,93100091.72715048
2460,43248061.495722905
2,14, 1,14, 0,16, 0.00,60.00,Saturday
8,92609123.19182834
2460,41997022.43467112
2,14, 1,14, 0,17, 0.00,60.00,Saturday
8,92622814.81364904
2460,42328668.35479629
2,14, 1,14, 0,18, 0.00,60.00,Saturday
8,51600260.08382782
2460,43099019.90919386
2,14, 1,14, 0,19, 0.00,60.00,Saturday
8,52609257.190722436
2460,45003383.831389844
2,14, 1,14, 0,20, 0.00,60.00,Saturday
8,52669477.60260359
2460,45224074.1158066
2,14, 1,14, 0,21, 0.00,60.00,Saturday
8,52714577.9234338
2460,45430638.8132317
2,14, 1,14, 0,22, 0.00,60.00,Saturday
8,53538138.81646179
2460,46986449.0333088
2,14, 1,14, 0,23, 0.00,60.00,Saturday
8,54292692.77045675
2460,74590329.28707981
2,14, 1,14, 0,24, 0.00,60.00,Saturday
8,54295223.151777886
2460,73459611.37863675
2,15, 1,15, 0, 1, 0.00,60.00,Sunday
8,34427367.21876583
2460,34787310.2222753
2,15, 1,15, 0, 2, 0.00,60.00,Sunday
8,36963691.25856643
2460,37852497.17516205
2,15, 1,15, 0, 3, 0.00,60.00,Sunday
8,37041098.61568181
2460,40757782.58000626
2,15, 1,15, 0, 4, 0.00,60.00,Sunday
8,37881135.08344036
2460,45073186.12703367
2,15, 1,15, 0, 5, 0.00,60.00,Sunday
8,38851547.7198573
2460,47957783.82805731
2,15, 1,15, 0, 6, 0.00,60.00,Sunday
8,38040022.88847578
2460,47001086.386045575
2,15, 1,15, 0, 7, 0.00,60.00,Sunday
8,39200424.31162109
2460,47341390.51315436
2,15, 1,15, 0, 8, 0.00,60.00,Sunday
8,40229779.53964782
2460,49220940.78105414
2,15, 1,15, 0, 9, 0.00,60.00,Sunday
8,42028243.12633949
2460,50742236.69781392
2,15, 1,15, 0,10, 0.00,60.00,Sunday
8,40663244.234936684
2460,49478612.700348064
2,15, 1,15, 0,11, 0.00,60.00,Sunday
8,38462653.843244486
2460,50071620.96072611
2,15, 1,15, 0,12, 0.00,60.00,Sunday
8,38339443.44889157
2460,49915758.082658514
2,15, 1,15, 0,13, 0.00,60.00,Sunday
8,38230433.09323762
2460,49895491.24780449
2,15, 1,15, 0,14, 0.00,60.00,Sunday
8,38304176.318165116
2460,49953162.05068059
2,15, 1,15, 0,15, 0.00,60.00,Sunday
8,38545232.15135202
2460,50259698.23037661
2,15, 1,15, 0,16, 0.00,60.00,Sunday
8,38866255.93273511
2460,50697348.70139948
2,15, 1,15, 0,17, 0.00,60.00,Sunday
8,39209298.04983075
2460,51262885.95708487
2,15, 1,15, 0,18, 0.00,60.00,Sunday
8,41143624.87616786
2460,50176539.364427194
2,15, 1,15, 0,19, 0.00,60.00,Sunday
8,41261594.611297086
2460,50307211.08260698
2,15, 1,15, 0,20, 0.00,60.00,Sunday
8,41357460.61123696
2460,50414425.816167444
2,15, 1,15, 0,21, 0.00,60.00,Sunday
8,39658730.08196879
2460,48867593.25745995
2,15, 1,15, 0,22, 0.00,60.00,Sunday
8,39678504.780058265
2460,48909302.45879469
2,15, 1,15, 0,23, 0.00,60.00,Sunday
8,39716746.62994831
2460,48990471.18526009
2,15, 1,15, 0,24, 0.00,60.00,Sunday
8,41630496.01124208
2460,50762920.356915705
2,16, 1,16, 0, 1, 0.00,60.00,Monday
8,54043303.17285274
2460,53005364.86045675
2,16, 1,16, 0, 2, 0.00,60.00,Monday
8,54137886.95957997
2460,53318049.95466483
2,16, 1,16, 0, 3, 0.00,60.00,Monday
8,54218811.49083535
2460,53525741.96352954
2,16, 1,16, 0, 4, 0.00,60.00,Monday
8,54271405.57811592
2460,53668756.402857155
2,16, 1,16, 0, 5, 0.00,60.00,Monday
8,56219874.58717978
2460,55485456.287889756
2,16, 1,16, 0, 6, 0.00,60.00,Monday
8,56577116.8148833
2460,55981127.40948844