Program Version,EnergyPlus, Version 22.2.0-aa78da9668, YMD=2023.04.03 15:02
1,5,Environment Title[],Latitude[deg],Longitude[deg],Time Zone[],Elevation[m]
2,8,Day of Simulation[],Month[],Day of Month[],DST Indicator[1=yes 0=no],Hour[],StartMinute[],EndMinute[],DayType
3,5,Cumulative Day of Simulation[],Month[],Day of Month[],DST Indicator[1=yes 0=no],DayType  ! When Daily Report Variables Requested
4,2,Cumulative Days of Simulation[],Month[]  ! When Monthly Report Variables Requested
5,1,Cumulative Days of Simulation[] ! When Run Period Report Variables Requested
6,1,Calendar Year of Simulation[] ! When Annual Report Variables Requested
8,1,Electricity:Facility [J] !TimeStep
2268,1,NaturalGas:Facility [J] !TimeStep
End of Data Dictionary
1,KODIAK ANN CLG .4% CONDNS DB=>MWB HVAC Sizing Pass 1,  57.75,-152.49,  -9.00,  34.00
2,1, 8,21, 0, 1, 0.00,10.00,SummerDesignDay
8,4618570.613655656
2268,0.0
2,1, 8,21, 0, 1,10.00,20.00,SummerDesignDay
8,4618570.613655656
2268,0.0
2,1, 8,21, 0, 1,20.00,30.00,SummerDesignDay
8,4618570.613655656
2268,0.0
2,1, 8,21, 0, 1,30.00,40.00,SummerDesignDay
8,4618570.613655656
2268,0.0
2,1, 8,21, 0, 1,40.00,50.00,SummerDesignDay
8,4618570.613655656
2268,0.0
2,1, 8,21, 0, 1,50.00,60.00,SummerDesignDay
8,4618570.613655656
2268,0.0
2,1, 8,21, 0, 2, 0.00,10.00,SummerDesignDay
8,4618570.613655656
2268,0.0
2,1, 8,21, 0, 2,10.00,20.00,SummerDesignDay
8,4618570.613655656
2268,0.0
2,1, 8,21, 0, 2,20.00,30.00,SummerDesignDay
8,4618570.613655656
2268,0.0
2,1, 8,21, 0, 2,30.00,40.00,SummerDesignDay
8,4618570.613655656
2268,0.0
2,1, 8,21, 0, 2,40.00,50.00,SummerDesignDay
8,4618570.613655656
2268,0.0
2,1, 8,21, 0, 2,50.00,60.00,SummerDesignDay
8,4618570.613655656
2268,0.0
2,1, 8,21, 0, 3, 0.00,10.00,SummerDesignDay
8,4618570.613655656
2268,0.0
2,1, 8,21, 0, 3,10.00,20.00,SummerDesignDay
8,4618570.613655656
2268,0.0
2,1, 8,21, 0, 3,20.00,30.00,SummerDesignDay
8,4618570.613655656
2268,0.0
2,1, 8,21, 0, 3,30.00,40.00,SummerDesignDay
8,4618570.613655656
2268,0.0
2,1, 8,21, 0, 3,40.00,50.00,SummerDesignDay
8,4618570.613655656
2268,0.0
2,1, 8,21, 0, 3,50.00,60.00,SummerDesignDay
8,4618570.613655656
2268,0.0
2,1, 8,21, 0, 4, 0.00,10.00,SummerDesignDay
8,4618570.613655656
2268,0.0
2,1, 8,21, 0, 4,10.00,20.00,SummerDesignDay
8,4618570.613655656
2268,0.0
2,1, 8,21, 0, 4,20.00,30.00,SummerDesignDay
8,4618570.613655656
2268,0.0
2,1, 8,21, 0, 4,30.00,40.00,SummerDesignDay
8,4618570.613655656
2268,0.0
2,1, 8,21, 0, 4,40.00,50.00,SummerDesignDay
8,4618570.613655656
2268,0.0
2,1, 8,21, 0, 4,50.00,60.00,SummerDesignDay
8,4618570.613655656
2268,0.0
2,1, 8,21, 0, 5, 0.00,10.00,SummerDesignDay
8,4618570.613655656
2268,0.0
2,1, 8,21, 0, 5,10.00,20.00,SummerDesignDay
8,4618570.613655656
2268,0.0
2,1, 8,21, 0, 5,20.00,30.00,SummerDesignDay
8,4618570.613655656
2268,0.0
2,1, 8,21, 0, 5,30.00,40.00,SummerDesignDay
8,4618570.613655656
2268,0.0
2,1, 8,21, 0, 5,40.00,50.00,SummerDesignDay
8,4618570.613655656
2268,0.0
2,1, 8,21, 0, 5,50.00,60.00,SummerDesignDay
8,5873287.040320992
2268,0.0
2,1, 8,21, 0, 6, 0.00,10.00,SummerDesignDay
8,4618570.613655656
2268,0.0
2,1, 8,21, 0, 6,10.00,20.00,SummerDesignDay
8,4618570.613655656
2268,0.0
2,1, 8,21, 0, 6,20.00,30.00,SummerDesignDay
8,4618570.613655656
2268,0.0
2,1, 8,21, 0, 6,30.00,40.00,SummerDesignDay
8,4618570.613655656
2268,0.0
2,1, 8,21, 0, 6,40.00,50.00,SummerDesignDay
8,4618570.613655656
2268,0.0
2,1, 8,21, 0, 6,50.00,60.00,SummerDesignDay
8,4256824.613655656
2268,0.0
2,1, 8,21, 0, 7, 0.00,10.00,SummerDesignDay
8,4445187.2881257385
2268,0.0
2,1, 8,21, 0, 7,10.00,20.00,SummerDesignDay
8,4371127.178272932
2268,0.0
2,1, 8,21, 0, 7,20.00,30.00,SummerDesignDay
8,4364340.017450718
2268,0.0
2,1, 8,21, 0, 7,30.00,40.00,SummerDesignDay
8,4357091.604387071
2268,0.0
2,1, 8,21, 0, 7,40.00,50.00,SummerDesignDay
8,4348478.198258178
2268,0.0
2,1, 8,21, 0, 7,50.00,60.00,SummerDesignDay
8,4345630.947662586
2268,0.0
2,1, 8,21, 0, 8, 0.00,10.00,SummerDesignDay
8,4344003.032296189
2268,0.0
2,1, 8,21, 0, 8,10.00,20.00,SummerDesignDay
8,4342858.006635672
2268,0.0
2,1, 8,21, 0, 8,20.00,30.00,SummerDesignDay
8,4342062.319537737
2268,0.0
2,1, 8,21, 0, 8,30.00,40.00,SummerDesignDay
8,4341736.043562986
2268,0.0
2,1, 8,21, 0, 8,40.00,50.00,SummerDesignDay
8,4341614.828002671
2268,0.0
2,1, 8,21, 0, 8,50.00,60.00,SummerDesignDay
8,4341752.96874805
2268,0.0
2,1, 8,21, 0, 9, 0.00,10.00,SummerDesignDay
8,5060960.24049108
2268,0.0
2,1, 8,21, 0, 9,10.00,20.00,SummerDesignDay
8,5062152.17085343
2268,0.0
2,1, 8,21, 0, 9,20.00,30.00,SummerDesignDay
8,5066447.129029255
2268,0.0
2,1, 8,21, 0, 9,30.00,40.00,SummerDesignDay
8,5069401.56671809
2268,0.0
2,1, 8,21, 0, 9,40.00,50.00,SummerDesignDay
8,5072511.898162127
2268,0.0
2,1, 8,21, 0, 9,50.00,60.00,SummerDesignDay
8,5076103.515209529
2268,0.0
2,1, 8,21, 0,10, 0.00,10.00,SummerDesignDay
8,5079692.071949261
2268,0.0
2,1, 8,21, 0,10,10.00,20.00,SummerDesignDay
8,5083430.380674193
2268,0.0
2,1, 8,21, 0,10,20.00,30.00,SummerDesignDay
8,5073135.83988006
2268,0.0
2,1, 8,21, 0,10,30.00,40.00,SummerDesignDay
8,5102275.6137480065
2268,0.0
2,1, 8,21, 0,10,40.00,50.00,SummerDesignDay
8,6346932.473950189
2268,0.0
2,1, 8,21, 0,10,50.00,60.00,SummerDesignDay
8,5101021.087033776
2268,0.0
2,1, 8,21, 0,11, 0.00,10.00,SummerDesignDay
8,5105332.05644487
2268,0.0
2,1, 8,21, 0,11,10.00,20.00,SummerDesignDay
8,5110136.027156811
2268,0.0
2,1, 8,21, 0,11,20.00,30.00,SummerDesignDay
8,5115163.721412857
2268,0.0
2,1, 8,21, 0,11,30.00,40.00,SummerDesignDay
8,5120309.178670306
2268,0.0
2,1, 8,21, 0,11,40.00,50.00,SummerDesignDay
8,5129380.716007491
2268,0.0
2,1, 8,21, 0,11,50.00,60.00,SummerDesignDay
8,5136122.226117397
2268,0.0
2,1, 8,21, 0,12, 0.00,10.00,SummerDesignDay
8,5142846.2090445915
2268,0.0
2,1, 8,21, 0,12,10.00,20.00,SummerDesignDay
8,5149475.381623615
2268,0.0
2,1, 8,21, 0,12,20.00,30.00,SummerDesignDay
8,5155990.871547739
2268,0.0
2,1, 8,21, 0,12,30.00,40.00,SummerDesignDay
8,5162391.634044003
2268,0.0
2,1, 8,21, 0,12,40.00,50.00,SummerDesignDay
8,5168666.789414541
2268,0.0
2,1, 8,21, 0,12,50.00,60.00,SummerDesignDay
8,5174739.982298054
2268,0.0
2,1, 8,21, 0,13, 0.00,10.00,SummerDesignDay
8,4453640.668081769
2268,0.0
2,1, 8,21, 0,13,10.00,20.00,SummerDesignDay
8,4458183.133180853
2268,0.0
2,1, 8,21, 0,13,20.00,30.00,SummerDesignDay
8,4462921.245465349
2268,0.0
2,1, 8,21, 0,13,30.00,40.00,SummerDesignDay
8,4467620.570063686
2268,0.0
2,1, 8,21, 0,13,40.00,50.00,SummerDesignDay
8,4457480.937381492
2268,0.0
2,1, 8,21, 0,13,50.00,60.00,SummerDesignDay
8,4487997.561414706
2268,0.0
2,1, 8,21, 0,14, 0.00,10.00,SummerDesignDay
8,5204381.27570166
2268,0.0
2,1, 8,21, 0,14,10.00,20.00,SummerDesignDay
8,5213683.435499393
2268,0.0
2,1, 8,21, 0,14,20.00,30.00,SummerDesignDay
8,5217985.967904694
2268,0.0
2,1, 8,21, 0,14,30.00,40.00,SummerDesignDay
8,5222434.38494437
2268,0.0
2,1, 8,21, 0,14,40.00,50.00,SummerDesignDay
8,5226795.150056255
2268,0.0
2,1, 8,21, 0,14,50.00,60.00,SummerDesignDay
8,5231173.886863358
2268,0.0
2,1, 8,21, 0,15, 0.00,10.00,SummerDesignDay
8,5234694.388599056
2268,0.0
2,1, 8,21, 0,15,10.00,20.00,SummerDesignDay
8,5238064.339254201
2268,0.0
2,1, 8,21, 0,15,20.00,30.00,SummerDesignDay
8,5241264.503904071
2268,0.0
2,1, 8,21, 0,15,30.00,40.00,SummerDesignDay
8,6498959.8922755085
2268,0.0
2,1, 8,21, 0,15,40.00,50.00,SummerDesignDay
8,5247085.915006591
2268,0.0
2,1, 8,21, 0,15,50.00,60.00,SummerDesignDay
8,5249680.622697659
2268,0.0
2,1, 8,21, 0,16, 0.00,10.00,SummerDesignDay
8,5251147.249649139
2268,0.0
2,1, 8,21, 0,16,10.00,20.00,SummerDesignDay
8,5257452.0043016095
2268,0.0
2,1, 8,21, 0,16,20.00,30.00,SummerDesignDay
8,5256420.235508698
2268,0.0
2,1, 8,21, 0,16,30.00,40.00,SummerDesignDay
8,5258180.046224616
2268,0.0
2,1, 8,21, 0,16,40.00,50.00,SummerDesignDay
8,5258986.39147987
2268,0.0
2,1, 8,21, 0,16,50.00,60.00,SummerDesignDay
8,5259254.98194083
2268,0.0
2,1, 8,21, 0,17, 0.00,10.00,SummerDesignDay
8,5258703.852816232
2268,0.0
2,1, 8,21, 0,17,10.00,20.00,SummerDesignDay
8,5257713.177381258
2268,0.0
2,1, 8,21, 0,17,20.00,30.00,SummerDesignDay
8,5256283.801488514
2268,0.0
2,1, 8,21, 0,17,30.00,40.00,SummerDesignDay
8,5254415.0663603805
2268,0.0
2,1, 8,21, 0,17,40.00,50.00,SummerDesignDay
8,5252112.30719413
2268,0.0
2,1, 8,21, 0,17,50.00,60.00,SummerDesignDay
8,5249387.802450998
2268,0.0
2,1, 8,21, 0,18, 0.00,10.00,SummerDesignDay
8,4258435.599852339
2268,0.0
2,1, 8,21, 0,18,10.00,20.00,SummerDesignDay
8,4257599.554484023
2268,0.0
2,1, 8,21, 0,18,20.00,30.00,SummerDesignDay
8,4257279.498691826
2268,0.0
2,1, 8,21, 0,18,30.00,40.00,SummerDesignDay
8,4257324.454068673
2268,0.0
2,1, 8,21, 0,18,40.00,50.00,SummerDesignDay
8,4257406.106476658
2268,0.0
2,1, 8,21, 0,18,50.00,60.00,SummerDesignDay
8,4257406.0041323155
2268,0.0
2,1, 8,21, 0,19, 0.00,10.00,SummerDesignDay
8,4257173.244232384
2268,0.0
2,1, 8,21, 0,19,10.00,20.00,SummerDesignDay
8,4256824.613655656
2268,0.0
2,1, 8,21, 0,19,20.00,30.00,SummerDesignDay
8,4256824.613655656
2268,0.0
2,1, 8,21, 0,19,30.00,40.00,SummerDesignDay
8,4256824.613655656
2268,0.0
2,1, 8,21, 0,19,40.00,50.00,SummerDesignDay
8,4256824.613655656
2268,0.0
2,1, 8,21, 0,19,50.00,60.00,SummerDesignDay
8,4256824.613655656
2268,0.0
2,1, 8,21, 0,20, 0.00,10.00,SummerDesignDay
8,4256824.613655656
2268,0.0
2,1, 8,21, 0,20,10.00,20.00,SummerDesignDay
8,4256824.613655656
2268,0.0
2,1, 8,21, 0,20,20.00,30.00,SummerDesignDay
8,4256824.613655656
2268,0.0
2,1, 8,21, 0,20,30.00,40.00,SummerDesignDay
8,5511541.251859736
2268,0.0
2,1, 8,21, 0,20,40.00,50.00,SummerDesignDay
8,4256824.613655656
2268,0.0
2,1, 8,21, 0,20,50.00,60.00,SummerDesignDay
8,4256824.613655656
2268,0.0
2,1, 8,21, 0,21, 0.00,10.00,SummerDesignDay
8,4256824.613655656
2268,0.0
2,1, 8,21, 0,21,10.00,20.00,SummerDesignDay
8,4256824.613655656
2268,0.0
2,1, 8,21, 0,21,20.00,30.00,SummerDesignDay
8,4256824.613655656
2268,0.0
2,1, 8,21, 0,21,30.00,40.00,SummerDesignDay
8,4804024.613655657
2268,0.0
2,1, 8,21, 0,21,40.00,50.00,SummerDesignDay
8,4804024.613655657
2268,0.0
2,1, 8,21, 0,21,50.00,60.00,SummerDesignDay
8,4804024.613655657
2268,0.0
2,1, 8,21, 0,22, 0.00,10.00,SummerDesignDay
8,4804024.613655657
2268,0.0
2,1, 8,21, 0,22,10.00,20.00,SummerDesignDay
8,4804024.613655657
2268,0.0
2,1, 8,21, 0,22,20.00,30.00,SummerDesignDay
8,4804024.613655657
2268,0.0
2,1, 8,21, 0,22,30.00,40.00,SummerDesignDay
8,4804024.613655657
2268,0.0
2,1, 8,21, 0,22,40.00,50.00,SummerDesignDay
8,4804024.613655657
2268,0.0
2,1, 8,21, 0,22,50.00,60.00,SummerDesignDay
8,4804024.613655657
2268,0.0
2,1, 8,21, 0,23, 0.00,10.00,SummerDesignDay
8,4804024.613655657
2268,0.0
2,1, 8,21, 0,23,10.00,20.00,SummerDesignDay
8,4804024.613655657
2268,0.0
2,1, 8,21, 0,23,20.00,30.00,SummerDesignDay
8,4804024.613655657
2268,0.0
2,1, 8,21, 0,23,30.00,40.00,SummerDesignDay
8,4804024.613655657
2268,0.0
2,1, 8,21, 0,23,40.00,50.00,SummerDesignDay
8,4804024.613655657
2268,0.0
2,1, 8,21, 0,23,50.00,60.00,SummerDesignDay
8,4804024.613655657
2268,0.0
2,1, 8,21, 0,24, 0.00,10.00,SummerDesignDay
8,4804024.613655657
2268,0.0
2,1, 8,21, 0,24,10.00,20.00,SummerDesignDay
8,4804024.613655657
2268,0.0
2,1, 8,21, 0,24,20.00,30.00,SummerDesignDay
8,4804024.613655657
2268,0.0
2,1, 8,21, 0,24,30.00,40.00,SummerDesignDay
8,4804024.613655657
2268,0.0
2,1, 8,21, 0,24,40.00,50.00,SummerDesignDay
8,4804024.613655657
2268,0.0
2,1, 8,21, 0,24,50.00,60.00,SummerDesignDay
8,4804024.613655657
2268,0.0
1,KODIAK ANN CLG .4% CONDNS WB=>MDB HVAC Sizing Pass 1,  57.75,-152.49,  -9.00,  34.00
2,1, 8,21, 0, 1, 0.00,10.00,SummerDesignDay
8,4618570.613655656
2268,0.0
2,1, 8,21, 0, 1,10.00,20.00,SummerDesignDay
8,4618570.613655656
2268,0.0
2,1, 8,21, 0, 1,20.00,30.00,SummerDesignDay
8,4618570.613655656
2268,0.0
2,1, 8,21, 0, 1,30.00,40.00,SummerDesignDay
8,4618570.613655656
2268,0.0
2,1, 8,21, 0, 1,40.00,50.00,SummerDesignDay
8,4618570.613655656
2268,0.0
2,1, 8,21, 0, 1,50.00,60.00,SummerDesignDay
8,4618570.613655656
2268,0.0
2,1, 8,21, 0, 2, 0.00,10.00,SummerDesignDay
8,4618570.613655656
2268,0.0
2,1, 8,21, 0, 2,10.00,20.00,SummerDesignDay
8,4618570.613655656
2268,0.0
2,1, 8,21, 0, 2,20.00,30.00,SummerDesignDay
8,4618570.613655656
2268,0.0
2,1, 8,21, 0, 2,30.00,40.00,SummerDesignDay
8,4618570.613655656
2268,0.0
2,1, 8,21, 0, 2,40.00,50.00,SummerDesignDay
8,4618570.613655656
2268,0.0
2,1, 8,21, 0, 2,50.00,60.00,SummerDesignDay
8,4618570.613655656
2268,0.0
2,1, 8,21, 0, 3, 0.00,10.00,SummerDesignDay
8,4618570.613655656
2268,0.0
2,1, 8,21, 0, 3,10.00,20.00,SummerDesignDay
8,4618570.613655656
2268,0.0
2,1, 8,21, 0, 3,20.00,30.00,SummerDesignDay
8,4618570.613655656
2268,0.0
2,1, 8,21, 0, 3,30.00,40.00,SummerDesignDay
8,4618570.613655656
2268,0.0
2,1, 8,21, 0, 3,40.00,50.00,SummerDesignDay
8,4618570.613655656
2268,0.0
2,1, 8,21, 0, 3,50.00,60.00,SummerDesignDay
8,4618570.613655656
2268,0.0
2,1, 8,21, 0, 4, 0.00,10.00,SummerDesignDay
8,4618570.613655656
2268,0.0
2,1, 8,21, 0, 4,10.00,20.00,SummerDesignDay
8,4618570.613655656
2268,0.0
2,1, 8,21, 0, 4,20.00,30.00,SummerDesignDay
8,4618570.613655656
2268,0.0
2,1, 8,21, 0, 4,30.00,40.00,SummerDesignDay
8,4618570.613655656
2268,0.0
2,1, 8,21, 0, 4,40.00,50.00,SummerDesignDay
8,4618570.613655656
2268,0.0
2,1, 8,21, 0, 4,50.00,60.00,SummerDesignDay
8,4618570.613655656
2268,0.0
2,1, 8,21, 0, 5, 0.00,10.00,SummerDesignDay
8,4618570.613655656
2268,0.0
2,1, 8,21, 0, 5,10.00,20.00,SummerDesignDay
8,4618570.613655656
2268,0.0
2,1, 8,21, 0, 5,20.00,30.00,SummerDesignDay
8,4618570.613655656
2268,0.0
2,1, 8,21, 0, 5,30.00,40.00,SummerDesignDay
8,4618570.613655656
2268,0.0
2,1, 8,21, 0, 5,40.00,50.00,SummerDesignDay
8,4618570.613655656
2268,0.0
2,1, 8,21, 0, 5,50.00,60.00,SummerDesignDay
8,5873287.040320992
2268,0.0
2,1, 8,21, 0, 6, 0.00,10.00,SummerDesignDay
8,4618570.613655656
2268,0.0
2,1, 8,21, 0, 6,10.00,20.00,SummerDesignDay
8,4618570.613655656
2268,0.0
2,1, 8,21, 0, 6,20.00,30.00,SummerDesignDay
8,4618570.613655656
2268,0.0
2,1, 8,21, 0, 6,30.00,40.00,SummerDesignDay
8,4618570.613655656
2268,0.0
2,1, 8,21, 0, 6,40.00,50.00,SummerDesignDay
8,4618570.613655656
2268,0.0
2,1, 8,21, 0, 6,50.00,60.00,SummerDesignDay
8,4256824.613655656
2268,0.0
2,1, 8,21, 0, 7, 0.00,10.00,SummerDesignDay
8,4356635.158993565
2268,0.0
2,1, 8,21, 0, 7,10.00,20.00,SummerDesignDay
8,4256824.613655656
2268,0.0
2,1, 8,21, 0, 7,20.00,30.00,SummerDesignDay
8,4307435.5968297105
2268,0.0
2,1, 8,21, 0, 7,30.00,40.00,SummerDesignDay
8,4311180.372111035
2268,0.0
2,1, 8,21, 0, 7,40.00,50.00,SummerDesignDay
8,4301610.639304733
2268,0.0
2,1, 8,21, 0, 7,50.00,60.00,SummerDesignDay
8,4301740.695020641
2268,0.0
2,1, 8,21, 0, 8, 0.00,10.00,SummerDesignDay
8,4301474.0126262875
2268,0.0
2,1, 8,21, 0, 8,10.00,20.00,SummerDesignDay
8,4301284.827843321
2268,0.0
2,1, 8,21, 0, 8,20.00,30.00,SummerDesignDay
8,4301264.864766435
2268,0.0
2,1, 8,21, 0, 8,30.00,40.00,SummerDesignDay
8,4301401.799743583
2268,0.0
2,1, 8,21, 0, 8,40.00,50.00,SummerDesignDay
8,4301661.424290231
2268,0.0
2,1, 8,21, 0, 8,50.00,60.00,SummerDesignDay
8,4301986.5275488775
2268,0.0
2,1, 8,21, 0, 9, 0.00,10.00,SummerDesignDay
8,5021860.96120845
2268,0.0
2,1, 8,21, 0, 9,10.00,20.00,SummerDesignDay
8,5023002.880339861
2268,0.0
2,1, 8,21, 0, 9,20.00,30.00,SummerDesignDay
8,5024135.245289519
2268,0.0
2,1, 8,21, 0, 9,30.00,40.00,SummerDesignDay
8,5025347.668543892
2268,0.0
2,1, 8,21, 0, 9,40.00,50.00,SummerDesignDay
8,5026646.830896232
2268,0.0
2,1, 8,21, 0, 9,50.00,60.00,SummerDesignDay
8,5028027.226689015
2268,0.0
2,1, 8,21, 0,10, 0.00,10.00,SummerDesignDay
8,5029431.789026174
2268,0.0
2,1, 8,21, 0,10,10.00,20.00,SummerDesignDay
8,5030896.393583788
2268,0.0
2,1, 8,21, 0,10,20.00,30.00,SummerDesignDay
8,5032411.021933855
2268,0.0
2,1, 8,21, 0,10,30.00,40.00,SummerDesignDay
8,5033962.697470873
2268,0.0
2,1, 8,21, 0,10,40.00,50.00,SummerDesignDay
8,6290236.612586305
2268,0.0
2,1, 8,21, 0,10,50.00,60.00,SummerDesignDay
8,5037073.101528506
2268,0.0
2,1, 8,21, 0,11, 0.00,10.00,SummerDesignDay
8,5038582.762273146
2268,0.0
2,1, 8,21, 0,11,10.00,20.00,SummerDesignDay
8,5040735.366189118
2268,0.0
2,1, 8,21, 0,11,20.00,30.00,SummerDesignDay
8,5049030.720356577
2268,0.0
2,1, 8,21, 0,11,30.00,40.00,SummerDesignDay
8,5052315.643959579
2268,0.0
2,1, 8,21, 0,11,40.00,50.00,SummerDesignDay
8,5056886.175274312
2268,0.0
2,1, 8,21, 0,11,50.00,60.00,SummerDesignDay
8,5061554.536707685
2268,0.0
2,1, 8,21, 0,12, 0.00,10.00,SummerDesignDay
8,5050003.738023434
2268,0.0
2,1, 8,21, 0,12,10.00,20.00,SummerDesignDay
8,5082352.09002368
2268,0.0
2,1, 8,21, 0,12,20.00,30.00,SummerDesignDay
8,5054190.632683251
2268,0.0
2,1, 8,21, 0,12,30.00,40.00,SummerDesignDay
8,5091937.176438035
2268,0.0
2,1, 8,21, 0,12,40.00,50.00,SummerDesignDay
8,5080312.403815022
2268,0.0
2,1, 8,21, 0,12,50.00,60.00,SummerDesignDay
8,5089523.630006675
2268,0.0
2,1, 8,21, 0,13, 0.00,10.00,SummerDesignDay
8,4369685.84701035
2268,0.0
2,1, 8,21, 0,13,10.00,20.00,SummerDesignDay
8,4373075.587715201
2268,0.0
2,1, 8,21, 0,13,20.00,30.00,SummerDesignDay
8,4376725.295410687
2268,0.0
2,1, 8,21, 0,13,30.00,40.00,SummerDesignDay
8,4380362.591158554
2268,0.0
2,1, 8,21, 0,13,40.00,50.00,SummerDesignDay
8,4383862.694092059
2268,0.0
2,1, 8,21, 0,13,50.00,60.00,SummerDesignDay
8,4387395.299245308
2268,0.0
2,1, 8,21, 0,14, 0.00,10.00,SummerDesignDay
8,5114311.757647084
2268,0.0
2,1, 8,21, 0,14,10.00,20.00,SummerDesignDay
8,5118324.086972266
2268,0.0
2,1, 8,21, 0,14,20.00,30.00,SummerDesignDay
8,5122060.936186629
2268,0.0
2,1, 8,21, 0,14,30.00,40.00,SummerDesignDay
8,5125710.305484102
2268,0.0
2,1, 8,21, 0,14,40.00,50.00,SummerDesignDay
8,5129271.09692067
2268,0.0
2,1, 8,21, 0,14,50.00,60.00,SummerDesignDay
8,5132984.377267854
2268,0.0
2,1, 8,21, 0,15, 0.00,10.00,SummerDesignDay
8,5138802.723318678
2268,0.0
2,1, 8,21, 0,15,10.00,20.00,SummerDesignDay
8,5142109.079656662
2268,0.0
2,1, 8,21, 0,15,20.00,30.00,SummerDesignDay
8,5145899.362170771
2268,0.0
2,1, 8,21, 0,15,30.00,40.00,SummerDesignDay
8,6403987.492536938
2268,0.0
2,1, 8,21, 0,15,40.00,50.00,SummerDesignDay
8,5152400.438363845
2268,0.0
2,1, 8,21, 0,15,50.00,60.00,SummerDesignDay
8,5155209.798465282
2268,0.0
2,1, 8,21, 0,16, 0.00,10.00,SummerDesignDay
8,5156947.352265244
2268,0.0
2,1, 8,21, 0,16,10.00,20.00,SummerDesignDay
8,5158400.15732916
2268,0.0
2,1, 8,21, 0,16,20.00,30.00,SummerDesignDay
8,5159569.913350582
2268,0.0
2,1, 8,21, 0,16,30.00,40.00,SummerDesignDay
8,5160452.158356944
2268,0.0
2,1, 8,21, 0,16,40.00,50.00,SummerDesignDay
8,5161081.894796574
2268,0.0
2,1, 8,21, 0,16,50.00,60.00,SummerDesignDay
8,5161394.770623784
2268,0.0
2,1, 8,21, 0,17, 0.00,10.00,SummerDesignDay
8,5161139.548167416
2268,0.0
2,1, 8,21, 0,17,10.00,20.00,SummerDesignDay
8,5160583.712108477
2268,0.0
2,1, 8,21, 0,17,20.00,30.00,SummerDesignDay
8,5159723.961590411
2268,0.0
2,1, 8,21, 0,17,30.00,40.00,SummerDesignDay
8,5158557.441084404
2268,0.0
2,1, 8,21, 0,17,40.00,50.00,SummerDesignDay
8,5157087.799486104
2268,0.0
2,1, 8,21, 0,17,50.00,60.00,SummerDesignDay
8,5155324.0710124485
2268,0.0
2,1, 8,21, 0,18, 0.00,10.00,SummerDesignDay
8,4256824.613655656
2268,0.0
2,1, 8,21, 0,18,10.00,20.00,SummerDesignDay
8,4256824.613655656
2268,0.0
2,1, 8,21, 0,18,20.00,30.00,SummerDesignDay
8,4256824.613655656
2268,0.0
2,1, 8,21, 0,18,30.00,40.00,SummerDesignDay
8,4256824.613655656
2268,0.0
2,1, 8,21, 0,18,40.00,50.00,SummerDesignDay
8,4256824.613655656
2268,0.0
2,1, 8,21, 0,18,50.00,60.00,SummerDesignDay
8,4256824.613655656
2268,0.0
2,1, 8,21, 0,19, 0.00,10.00,SummerDesignDay
8,4256824.613655656
2268,0.0
2,1, 8,21, 0,19,10.00,20.00,SummerDesignDay
8,4256824.613655656
2268,0.0
2,1, 8,21, 0,19,20.00,30.00,SummerDesignDay
8,4256824.613655656
2268,0.0
2,1, 8,21, 0,19,30.00,40.00,SummerDesignDay
8,4256824.613655656
2268,0.0
2,1, 8,21, 0,19,40.00,50.00,SummerDesignDay
8,4256824.613655656
2268,0.0
2,1, 8,21, 0,19,50.00,60.00,SummerDesignDay
8,4256824.613655656
2268,0.0
2,1, 8,21, 0,20, 0.00,10.00,SummerDesignDay
8,4256824.613655656
2268,0.0
2,1, 8,21, 0,20,10.00,20.00,SummerDesignDay
8,4256824.613655656
2268,0.0
2,1, 8,21, 0,20,20.00,30.00,SummerDesignDay
8,4256824.613655656
2268,0.0
2,1, 8,21, 0,20,30.00,40.00,SummerDesignDay
8,5511541.2517633205
2268,0.0
2,1, 8,21, 0,20,40.00,50.00,SummerDesignDay
8,4256824.613655656
2268,0.0
2,1, 8,21, 0,20,50.00,60.00,SummerDesignDay
8,4256824.613655656
2268,0.0
2,1, 8,21, 0,21, 0.00,10.00,SummerDesignDay
8,4256824.613655656
2268,0.0
2,1, 8,21, 0,21,10.00,20.00,SummerDesignDay
8,4256824.613655656
2268,0.0
2,1, 8,21, 0,21,20.00,30.00,SummerDesignDay
8,4256824.613655656
2268,0.0
2,1, 8,21, 0,21,30.00,40.00,SummerDesignDay
8,4804024.613655657
2268,0.0
2,1, 8,21, 0,21,40.00,50.00,SummerDesignDay
8,4804024.613655657
2268,0.0
2,1, 8,21, 0,21,50.00,60.00,SummerDesignDay
8,4804024.613655657
2268,0.0
2,1, 8,21, 0,22, 0.00,10.00,SummerDesignDay
8,4804024.613655657
2268,0.0
2,1, 8,21, 0,22,10.00,20.00,SummerDesignDay
8,4804024.613655657
2268,0.0
2,1, 8,21, 0,22,20.00,30.00,SummerDesignDay
8,4804024.613655657
2268,0.0
2,1, 8,21, 0,22,30.00,40.00,SummerDesignDay
8,4804024.613655657
2268,0.0
2,1, 8,21, 0,22,40.00,50.00,SummerDesignDay
8,4804024.613655657
2268,0.0
2,1, 8,21, 0,22,50.00,60.00,SummerDesignDay
8,4804024.613655657
2268,0.0
2,1, 8,21, 0,23, 0.00,10.00,SummerDesignDay
8,4804024.613655657
2268,0.0
2,1, 8,21, 0,23,10.00,20.00,SummerDesignDay
8,4804024.613655657
2268,0.0
2,1, 8,21, 0,23,20.00,30.00,SummerDesignDay
8,4804024.613655657
2268,0.0
2,1, 8,21, 0,23,30.00,40.00,SummerDesignDay
8,4804024.613655657
2268,0.0
2,1, 8,21, 0,23,40.00,50.00,SummerDesignDay
8,4804024.613655657
2268,0.0
2,1, 8,21, 0,23,50.00,60.00,SummerDesignDay
8,4804024.613655657
2268,0.0
2,1, 8,21, 0,24, 0.00,10.00,SummerDesignDay
8,4804024.613655657
2268,0.0
2,1, 8,21, 0,24,10.00,20.00,SummerDesignDay
8,4804024.613655657
2268,0.0
2,1, 8,21, 0,24,20.00,30.00,SummerDesignDay
8,4804024.613655657
2268,0.0
2,1, 8,21, 0,24,30.00,40.00,SummerDesignDay
8,4804024.613655657
2268,0.0
2,1, 8,21, 0,24,40.00,50.00,SummerDesignDay
8,4804024.613655657
2268,0.0
2,1, 8,21, 0,24,50.00,60.00,SummerDesignDay
8,4804024.613655657
2268,0.0
1,KODIAK ANN HTG 99.6% CONDNS DB HVAC Sizing Pass 1,  57.75,-152.49,  -9.00,  34.00
2,1, 1,21, 0, 1, 0.00,10.00,WinterDesignDay
8,14061425.92634071
2268,19884261.72453824
2,1, 1,21, 0, 1,10.00,20.00,WinterDesignDay
8,14064964.238214772
2268,19890314.01940254
2,1, 1,21, 0, 1,20.00,30.00,WinterDesignDay
8,14068330.568722436
2268,19896029.91514273
2,1, 1,21, 0, 1,30.00,40.00,WinterDesignDay
8,14071540.598488811
2268,19901450.331001338
2,1, 1,21, 0, 1,40.00,50.00,WinterDesignDay
8,14074608.61334176
2268,19906610.658879265
2,1, 1,21, 0, 1,50.00,60.00,WinterDesignDay
8,14077547.608436512
2268,19911541.530355293
2,1, 1,21, 0, 2, 0.00,10.00,WinterDesignDay
8,14080369.38862705
2268,19916269.47545453
2,1, 1,21, 0, 2,10.00,20.00,WinterDesignDay
8,14083084.664264087
2268,19920817.488584016
2,1, 1,21, 0, 2,20.00,30.00,WinterDesignDay
8,14085703.141892424
2268,19925205.51486386
2,1, 1,21, 0, 2,30.00,40.00,WinterDesignDay
8,14088233.60954481
2268,19929450.868193667
2,1, 1,21, 0, 2,40.00,50.00,WinterDesignDay
8,14090533.033247033
2268,19933351.72880931
2,1, 1,21, 0, 2,50.00,60.00,WinterDesignDay
8,14092929.194897769
2268,19937377.452354595
2,1, 1,21, 0, 3, 0.00,10.00,WinterDesignDay
8,14095125.312528782
2268,19941115.47410508
2,1, 1,21, 0, 3,10.00,20.00,WinterDesignDay
8,14097259.628679993
2268,19944755.3790874
2,1, 1,21, 0, 3,20.00,30.00,WinterDesignDay
8,14099368.059680093
2268,19948354.973249372
2,1, 1,21, 0, 3,30.00,40.00,WinterDesignDay
8,14101436.541980421
2268,19951895.98275055
2,1, 1,21, 0, 3,40.00,50.00,WinterDesignDay
8,14103468.858419036
2268,19955382.64077907
2,1, 1,21, 0, 3,50.00,60.00,WinterDesignDay
8,14105467.49789063
2268,19958818.18017738
2,1, 1,21, 0, 4, 0.00,10.00,WinterDesignDay
8,14107434.744111866
2268,19962205.616306245
2,1, 1,21, 0, 4,10.00,20.00,WinterDesignDay
8,14109372.709707748
2268,19965547.67096172
2,1, 1,21, 0, 4,20.00,30.00,WinterDesignDay
8,14111283.352744631
2268,19968846.795350805
2,1, 1,21, 0, 4,30.00,40.00,WinterDesignDay
8,14113168.47668795
2268,19972105.189824156
2,1, 1,21, 0, 4,40.00,50.00,WinterDesignDay
8,14115029.735180378
2268,19975324.828244638
2,1, 1,21, 0, 4,50.00,60.00,WinterDesignDay
8,14116868.640389396
2268,19978507.482362516
2,1, 1,21, 0, 5, 0.00,10.00,WinterDesignDay
8,14118686.57249759
2268,19981654.744212203
2,1, 1,21, 0, 5,10.00,20.00,WinterDesignDay
8,14120484.789198162
2268,19984768.046079595
2,1, 1,21, 0, 5,20.00,30.00,WinterDesignDay
8,14122264.434933154
2268,19987848.678247202
2,1, 1,21, 0, 5,30.00,40.00,WinterDesignDay
8,14124026.549849525
2268,19990897.80481493
2,1, 1,21, 0, 5,40.00,50.00,WinterDesignDay
8,14125772.078433974
2268,19993916.477824204
2,1, 1,21, 0, 5,50.00,60.00,WinterDesignDay
8,15382218.304414837
2268,19996905.64984884
2,1, 1,21, 0, 6, 0.00,10.00,WinterDesignDay
8,14129216.72519988
2268,19999866.185192008
2,1, 1,21, 0, 6,10.00,20.00,WinterDesignDay
8,14130917.32577404
2268,20002798.86982079
2,1, 1,21, 0, 6,20.00,30.00,WinterDesignDay
8,14132604.318753237
2268,20005704.42016871
2,1, 1,21, 0, 6,30.00,40.00,WinterDesignDay
8,14134278.283885244
2268,20008583.4909285
2,1, 1,21, 0, 6,40.00,50.00,WinterDesignDay
8,14135939.74704413
2268,20011436.681948595
2,1, 1,21, 0, 6,50.00,60.00,WinterDesignDay
8,14137589.185401144
2268,20014264.54433609
2,1, 1,21, 0, 7, 0.00,10.00,WinterDesignDay
8,14324681.032136755
2268,22807578.11963914
2,1, 1,21, 0, 7,10.00,20.00,WinterDesignDay
8,14324140.839796914
2268,22306227.289691843
2,1, 1,21, 0, 7,20.00,30.00,WinterDesignDay
8,14316934.481493684
2268,22180438.57644839
2,1, 1,21, 0, 7,30.00,40.00,WinterDesignDay
8,14306240.778316805
2268,21850019.85078482
2,1, 1,21, 0, 7,40.00,50.00,WinterDesignDay
8,14295203.26219577
2268,21674059.84727732
2,1, 1,21, 0, 7,50.00,60.00,WinterDesignDay
8,14284780.554014347
2268,21556359.836676322
2,1, 1,21, 0, 8, 0.00,10.00,WinterDesignDay
8,14275238.217940329
2268,24341741.312570557
2,1, 1,21, 0, 8,10.00,20.00,WinterDesignDay
8,14263858.034001146
2268,23950654.622613195
2,1, 1,21, 0, 8,20.00,30.00,WinterDesignDay
8,14245905.155309647
2268,23548380.791755196
2,1, 1,21, 0, 8,30.00,40.00,WinterDesignDay
8,14225033.081587426
2268,23231472.55806792
2,1, 1,21, 0, 8,40.00,50.00,WinterDesignDay
8,14204712.826425252
2268,22977777.542779304
2,1, 1,21, 0, 8,50.00,60.00,WinterDesignDay
8,14185869.315178672
2268,22802017.057920426
2,1, 1,21, 0, 9, 0.00,10.00,WinterDesignDay
8,14706774.01044867
2268,24013514.005569328
2,1, 1,21, 0, 9,10.00,20.00,WinterDesignDay
8,14675432.188543787
2268,23176145.44211521
2,1, 1,21, 0, 9,20.00,30.00,WinterDesignDay
8,14645580.329267532
2268,23412013.570686653
2,1, 1,21, 0, 9,30.00,40.00,WinterDesignDay
8,14616419.806026652
2268,23166149.77258331
2,1, 1,21, 0, 9,40.00,50.00,WinterDesignDay
8,14589345.784876013
2268,22995130.44871928
2,1, 1,21, 0, 9,50.00,60.00,WinterDesignDay
8,14564468.901434395
2268,22869557.33325833
2,1, 1,21, 0,10, 0.00,10.00,WinterDesignDay
8,14541805.904724477
2268,22764575.303168602
2,1, 1,21, 0,10,10.00,20.00,WinterDesignDay
8,14521057.576263402
2268,22675935.788372915
2,1, 1,21, 0,10,20.00,30.00,WinterDesignDay
8,14502078.742941909
2268,22600676.579582527
2,1, 1,21, 0,10,30.00,40.00,WinterDesignDay
8,14484746.077815302
2268,22536509.55467146
2,1, 1,21, 0,10,40.00,50.00,WinterDesignDay
8,15176427.394132711
2268,22481550.343903374
2,1, 1,21, 0,10,50.00,60.00,WinterDesignDay
8,13907278.82008391
2268,22434269.96986483
2,1, 1,21, 0,11, 0.00,10.00,WinterDesignDay
8,13894093.865958318
2268,22393421.525917687
2,1, 1,21, 0,11,10.00,20.00,WinterDesignDay
8,13882055.535341822
2268,22357986.21589435
2,1, 1,21, 0,11,20.00,30.00,WinterDesignDay
8,13871060.42330954
2268,22327135.478592224
2,1, 1,21, 0,11,30.00,40.00,WinterDesignDay
8,13861203.288910436
2268,22300590.203858335
2,1, 1,21, 0,11,40.00,50.00,WinterDesignDay
8,13852159.553087747
2268,22277085.664006833
2,1, 1,21, 0,11,50.00,60.00,WinterDesignDay
8,13843845.960778682
2268,22255951.943371262
2,1, 1,21, 0,12, 0.00,10.00,WinterDesignDay
8,13836219.551278861
2268,22237067.683968656
2,1, 1,21, 0,12,10.00,20.00,WinterDesignDay
8,13829217.04496246
2268,22220131.466506995
2,1, 1,21, 0,12,20.00,30.00,WinterDesignDay
8,13822782.079509629
2268,22204884.920887865
2,1, 1,21, 0,12,30.00,40.00,WinterDesignDay
8,13816863.160337519
2268,22191103.930201508
2,1, 1,21, 0,12,40.00,50.00,WinterDesignDay
8,13811413.51533833
2268,22178594.959161926
2,1, 1,21, 0,12,50.00,60.00,WinterDesignDay
8,13806390.871612834
2268,22167191.160229515
2,1, 1,21, 0,13, 0.00,10.00,WinterDesignDay
8,13261719.322119426
2268,22252129.276242908
2,1, 1,21, 0,13,10.00,20.00,WinterDesignDay
8,13270313.755559132
2268,22252570.250518598
2,1, 1,21, 0,13,20.00,30.00,WinterDesignDay
8,13275791.647335226
2268,22251207.900280677
2,1, 1,21, 0,13,30.00,40.00,WinterDesignDay
8,13280738.198783906
2268,22249744.81676137
2,1, 1,21, 0,13,40.00,50.00,WinterDesignDay
8,13285255.470060732
2268,22248307.51239222
2,1, 1,21, 0,13,50.00,60.00,WinterDesignDay
8,13289440.439654171
2268,22246894.196739346
2,1, 1,21, 0,14, 0.00,10.00,WinterDesignDay
8,13833109.105652042
2268,22150060.911372848
2,1, 1,21, 0,14,10.00,20.00,WinterDesignDay
8,13823586.46497961
2268,22138506.079818588
2,1, 1,21, 0,14,20.00,30.00,WinterDesignDay
8,13817165.64011568
2268,22129390.103255402
2,1, 1,21, 0,14,30.00,40.00,WinterDesignDay
8,13811293.275618272
2268,22120918.00325027
2,1, 1,21, 0,14,40.00,50.00,WinterDesignDay
8,13805865.60644628
2268,22112885.43601462
2,1, 1,21, 0,14,50.00,60.00,WinterDesignDay
8,13800787.937198553
2268,22105231.0151063
2,1, 1,21, 0,15, 0.00,10.00,WinterDesignDay
8,13796039.21387063
2268,22097954.456609145
2,1, 1,21, 0,15,10.00,20.00,WinterDesignDay
8,13791615.25826988
2268,22091052.435299926
2,1, 1,21, 0,15,20.00,30.00,WinterDesignDay
8,13787515.206808548
2268,22084507.479371376
2,1, 1,21, 0,15,30.00,40.00,WinterDesignDay
8,15038449.738877205
2268,22078292.759473097
2,1, 1,21, 0,15,40.00,50.00,WinterDesignDay
8,13780274.219898304
2268,22072378.69267792
2,1, 1,21, 0,15,50.00,60.00,WinterDesignDay
8,13776818.842496146
2268,22066736.834715147