Program Version,EnergyPlus, Version 22.2.0-aa78da9668, YMD=2023.03.30 09:21
1,5,Environment Title[],Latitude[deg],Longitude[deg],Time Zone[],Elevation[m]
2,8,Day of Simulation[],Month[],Day of Month[],DST Indicator[1=yes 0=no],Hour[],StartMinute[],EndMinute[],DayType
3,5,Cumulative Day of Simulation[],Month[],Day of Month[],DST Indicator[1=yes 0=no],DayType  ! When Daily Report Variables Requested
4,2,Cumulative Days of Simulation[],Month[]  ! When Monthly Report Variables Requested
5,1,Cumulative Days of Simulation[] ! When Run Period Report Variables Requested
6,1,Calendar Year of Simulation[] ! When Annual Report Variables Requested
8,1,Electricity:Facility [J] !TimeStep
3402,1,NaturalGas:Facility [J] !TimeStep
End of Data Dictionary
1,KODIAK ANN CLG .4% CONDNS DB=>MWB HVAC Sizing Pass 1,  57.75,-152.49,  -9.00,  34.00
2,1, 8,21, 0, 1, 0.00,10.00,SummerDesignDay
8,44090172.3529252
3402,0.0
2,1, 8,21, 0, 1,10.00,20.00,SummerDesignDay
8,44073719.16465935
3402,0.0
2,1, 8,21, 0, 1,20.00,30.00,SummerDesignDay
8,44057301.89420289
3402,0.0
2,1, 8,21, 0, 1,30.00,40.00,SummerDesignDay
8,44040598.030066036
3402,0.0
2,1, 8,21, 0, 1,40.00,50.00,SummerDesignDay
8,44023796.713737555
3402,0.0
2,1, 8,21, 0, 1,50.00,60.00,SummerDesignDay
8,44006909.47859303
3402,0.0
2,1, 8,21, 0, 2, 0.00,10.00,SummerDesignDay
8,43992718.93370502
3402,0.0
2,1, 8,21, 0, 2,10.00,20.00,SummerDesignDay
8,43978452.84161246
3402,0.0
2,1, 8,21, 0, 2,20.00,30.00,SummerDesignDay
8,43964132.42345619
3402,0.0
2,1, 8,21, 0, 2,30.00,40.00,SummerDesignDay
8,43949771.82856653
3402,0.0
2,1, 8,21, 0, 2,40.00,50.00,SummerDesignDay
8,43935381.83564467
3402,0.0
2,1, 8,21, 0, 2,50.00,60.00,SummerDesignDay
8,43920968.688929446
3402,0.0
2,1, 8,21, 0, 3, 0.00,10.00,SummerDesignDay
8,43908069.634180084
3402,0.0
2,1, 8,21, 0, 3,10.00,20.00,SummerDesignDay
8,43894972.366312675
3402,0.0
2,1, 8,21, 0, 3,20.00,30.00,SummerDesignDay
8,43881864.374298565
3402,0.0
2,1, 8,21, 0, 3,30.00,40.00,SummerDesignDay
8,43868751.49978477
3402,0.0
2,1, 8,21, 0, 3,40.00,50.00,SummerDesignDay
8,43855638.2020768
3402,0.0
2,1, 8,21, 0, 3,50.00,60.00,SummerDesignDay
8,43842527.12419244
3402,0.0
2,1, 8,21, 0, 4, 0.00,10.00,SummerDesignDay
8,43829419.51257614
3402,0.0
2,1, 8,21, 0, 4,10.00,20.00,SummerDesignDay
8,43816477.133764364
3402,0.0
2,1, 8,21, 0, 4,20.00,30.00,SummerDesignDay
8,43803361.2782821
3402,0.0
2,1, 8,21, 0, 4,30.00,40.00,SummerDesignDay
8,43790253.171890564
3402,0.0
2,1, 8,21, 0, 4,40.00,50.00,SummerDesignDay
8,43777155.55813569
3402,0.0
2,1, 8,21, 0, 4,50.00,60.00,SummerDesignDay
8,43764074.81664409
3402,0.0
2,1, 8,21, 0, 5, 0.00,10.00,SummerDesignDay
8,43752329.86822273
3402,0.0
2,1, 8,21, 0, 5,10.00,20.00,SummerDesignDay
8,43740584.62730242
3402,0.0
2,1, 8,21, 0, 5,20.00,30.00,SummerDesignDay
8,43728853.87039056
3402,0.0
2,1, 8,21, 0, 5,30.00,40.00,SummerDesignDay
8,43717145.78560824
3402,0.0
2,1, 8,21, 0, 5,40.00,50.00,SummerDesignDay
8,43705439.427646935
3402,0.0
2,1, 8,21, 0, 5,50.00,60.00,SummerDesignDay
8,44948876.72871953
3402,0.0
2,1, 8,21, 0, 6, 0.00,10.00,SummerDesignDay
8,43688230.50685267
3402,0.0
2,1, 8,21, 0, 6,10.00,20.00,SummerDesignDay
8,43682303.54816792
3402,0.0
2,1, 8,21, 0, 6,20.00,30.00,SummerDesignDay
8,43676407.06976357
3402,0.0
2,1, 8,21, 0, 6,30.00,40.00,SummerDesignDay
8,43670555.52185864
3402,0.0
2,1, 8,21, 0, 6,40.00,50.00,SummerDesignDay
8,43664758.71569097
3402,0.0
2,1, 8,21, 0, 6,50.00,60.00,SummerDesignDay
8,43297588.15161554
3402,0.0
2,1, 8,21, 0, 7, 0.00,10.00,SummerDesignDay
8,47926619.58945531
3402,0.0
2,1, 8,21, 0, 7,10.00,20.00,SummerDesignDay
8,46476155.83130451
3402,0.0
2,1, 8,21, 0, 7,20.00,30.00,SummerDesignDay
8,46473403.37720316
3402,0.0
2,1, 8,21, 0, 7,30.00,40.00,SummerDesignDay
8,46306950.000546716
3402,0.0
2,1, 8,21, 0, 7,40.00,50.00,SummerDesignDay
8,45951120.47307071
3402,0.0
2,1, 8,21, 0, 7,50.00,60.00,SummerDesignDay
8,45861477.1097849
3402,0.0
2,1, 8,21, 0, 8, 0.00,10.00,SummerDesignDay
8,45811489.6199672
3402,0.0
2,1, 8,21, 0, 8,10.00,20.00,SummerDesignDay
8,45776009.8489737
3402,0.0
2,1, 8,21, 0, 8,20.00,30.00,SummerDesignDay
8,45752154.02859111
3402,0.0
2,1, 8,21, 0, 8,30.00,40.00,SummerDesignDay
8,45737824.53936786
3402,0.0
2,1, 8,21, 0, 8,40.00,50.00,SummerDesignDay
8,45731797.87100514
3402,0.0
2,1, 8,21, 0, 8,50.00,60.00,SummerDesignDay
8,45732999.564634934
3402,0.0
2,1, 8,21, 0, 9, 0.00,10.00,SummerDesignDay
8,53731988.21971655
3402,0.0
2,1, 8,21, 0, 9,10.00,20.00,SummerDesignDay
8,53759489.57956246
3402,0.0
2,1, 8,21, 0, 9,20.00,30.00,SummerDesignDay
8,53788890.16275983
3402,0.0
2,1, 8,21, 0, 9,30.00,40.00,SummerDesignDay
8,53821794.26279684
3402,0.0
2,1, 8,21, 0, 9,40.00,50.00,SummerDesignDay
8,53858015.46629857
3402,0.0
2,1, 8,21, 0, 9,50.00,60.00,SummerDesignDay
8,53897289.87791291
3402,0.0
2,1, 8,21, 0,10, 0.00,10.00,SummerDesignDay
8,53934832.23092838
3402,0.0
2,1, 8,21, 0,10,10.00,20.00,SummerDesignDay
8,53974890.15576267
3402,0.0
2,1, 8,21, 0,10,20.00,30.00,SummerDesignDay
8,54017299.56796987
3402,0.0
2,1, 8,21, 0,10,30.00,40.00,SummerDesignDay
8,54061901.93684454
3402,0.0
2,1, 8,21, 0,10,40.00,50.00,SummerDesignDay
8,55363193.57203796
3402,0.0
2,1, 8,21, 0,10,50.00,60.00,SummerDesignDay
8,54162107.38975357
3402,0.0
2,1, 8,21, 0,11, 0.00,10.00,SummerDesignDay
8,54291499.13882685
3402,0.0
2,1, 8,21, 0,11,10.00,20.00,SummerDesignDay
8,54375907.50328889
3402,0.0
2,1, 8,21, 0,11,20.00,30.00,SummerDesignDay
8,54468424.13176135
3402,0.0
2,1, 8,21, 0,11,30.00,40.00,SummerDesignDay
8,54558696.70379315
3402,0.0
2,1, 8,21, 0,11,40.00,50.00,SummerDesignDay
8,54651761.550060704
3402,0.0
2,1, 8,21, 0,11,50.00,60.00,SummerDesignDay
8,54745809.17793101
3402,0.0
2,1, 8,21, 0,12, 0.00,10.00,SummerDesignDay
8,54823163.5589164
3402,0.0
2,1, 8,21, 0,12,10.00,20.00,SummerDesignDay
8,54901014.39481986
3402,0.0
2,1, 8,21, 0,12,20.00,30.00,SummerDesignDay
8,54979169.785096586
3402,0.0
2,1, 8,21, 0,12,30.00,40.00,SummerDesignDay
8,55057394.213577874
3402,0.0
2,1, 8,21, 0,12,40.00,50.00,SummerDesignDay
8,55135751.64513298
3402,0.0
2,1, 8,21, 0,12,50.00,60.00,SummerDesignDay
8,55214016.48640829
3402,0.0
2,1, 8,21, 0,13, 0.00,10.00,SummerDesignDay
8,47295530.2820742
3402,0.0
2,1, 8,21, 0,13,10.00,20.00,SummerDesignDay
8,47359538.454610065
3402,0.0
2,1, 8,21, 0,13,20.00,30.00,SummerDesignDay
8,47425848.837176196
3402,0.0
2,1, 8,21, 0,13,30.00,40.00,SummerDesignDay
8,47493313.8285878
3402,0.0
2,1, 8,21, 0,13,40.00,50.00,SummerDesignDay
8,47559763.78088171
3402,0.0
2,1, 8,21, 0,13,50.00,60.00,SummerDesignDay
8,47625350.7330291
3402,0.0
2,1, 8,21, 0,14, 0.00,10.00,SummerDesignDay
8,55679911.467940316
3402,0.0
2,1, 8,21, 0,14,10.00,20.00,SummerDesignDay
8,55742840.59784812
3402,0.0
2,1, 8,21, 0,14,20.00,30.00,SummerDesignDay
8,55802848.46641286
3402,0.0
2,1, 8,21, 0,14,30.00,40.00,SummerDesignDay
8,55861935.39984363
3402,0.0
2,1, 8,21, 0,14,40.00,50.00,SummerDesignDay
8,55943583.25450585
3402,0.0
2,1, 8,21, 0,14,50.00,60.00,SummerDesignDay
8,56053236.776835114
3402,0.0
2,1, 8,21, 0,15, 0.00,10.00,SummerDesignDay
8,56105804.67327337
3402,0.0
2,1, 8,21, 0,15,10.00,20.00,SummerDesignDay
8,56174057.13031734
3402,0.0
2,1, 8,21, 0,15,20.00,30.00,SummerDesignDay
8,56237974.76830432
3402,0.0
2,1, 8,21, 0,15,30.00,40.00,SummerDesignDay
8,57554457.73877758
3402,0.0
2,1, 8,21, 0,15,40.00,50.00,SummerDesignDay
8,56360041.313431084
3402,0.0
2,1, 8,21, 0,15,50.00,60.00,SummerDesignDay
8,56417397.58019761
3402,0.0
2,1, 8,21, 0,16, 0.00,10.00,SummerDesignDay
8,56443091.54864814
3402,0.0
2,1, 8,21, 0,16,10.00,20.00,SummerDesignDay
8,56466363.4062547
3402,0.0
2,1, 8,21, 0,16,20.00,30.00,SummerDesignDay
8,56486968.45940246
3402,0.0
2,1, 8,21, 0,16,30.00,40.00,SummerDesignDay
8,56504759.453644305
3402,0.0
2,1, 8,21, 0,16,40.00,50.00,SummerDesignDay
8,56527285.377258785
3402,0.0
2,1, 8,21, 0,16,50.00,60.00,SummerDesignDay
8,56541343.11333516
3402,0.0
2,1, 8,21, 0,17, 0.00,10.00,SummerDesignDay
8,56541301.13210962
3402,0.0
2,1, 8,21, 0,17,10.00,20.00,SummerDesignDay
8,56536804.6558389
3402,0.0
2,1, 8,21, 0,17,20.00,30.00,SummerDesignDay
8,56527556.437812716
3402,0.0
2,1, 8,21, 0,17,30.00,40.00,SummerDesignDay
8,56513285.18131116
3402,0.0
2,1, 8,21, 0,17,40.00,50.00,SummerDesignDay
8,56493766.82180774
3402,0.0
2,1, 8,21, 0,17,50.00,60.00,SummerDesignDay
8,56468865.29199498
3402,0.0
2,1, 8,21, 0,18, 0.00,10.00,SummerDesignDay
8,45142882.528139554
3402,0.0
2,1, 8,21, 0,18,10.00,20.00,SummerDesignDay
8,45122343.17723987
3402,0.0
2,1, 8,21, 0,18,20.00,30.00,SummerDesignDay
8,45101753.994072
3402,0.0
2,1, 8,21, 0,18,30.00,40.00,SummerDesignDay
8,45080503.14759897
3402,0.0
2,1, 8,21, 0,18,40.00,50.00,SummerDesignDay
8,45056405.10593244
3402,0.0
2,1, 8,21, 0,18,50.00,60.00,SummerDesignDay
8,45036759.877148435
3402,0.0
2,1, 8,21, 0,19, 0.00,10.00,SummerDesignDay
8,45008773.25864705
3402,0.0
2,1, 8,21, 0,19,10.00,20.00,SummerDesignDay
8,45387289.67233212
3402,0.0
2,1, 8,21, 0,19,20.00,30.00,SummerDesignDay
8,45444411.53872987
3402,0.0
2,1, 8,21, 0,19,30.00,40.00,SummerDesignDay
8,45396009.926289015
3402,0.0
2,1, 8,21, 0,19,40.00,50.00,SummerDesignDay
8,45444187.670411855
3402,0.0
2,1, 8,21, 0,19,50.00,60.00,SummerDesignDay
8,45426439.86733023
3402,0.0
2,1, 8,21, 0,20, 0.00,10.00,SummerDesignDay
8,45409089.16790709
3402,0.0
2,1, 8,21, 0,20,10.00,20.00,SummerDesignDay
8,45380074.84943157
3402,0.0
2,1, 8,21, 0,20,20.00,30.00,SummerDesignDay
8,45333564.62174887
3402,0.0
2,1, 8,21, 0,20,30.00,40.00,SummerDesignDay
8,46522409.559664674
3402,0.0
2,1, 8,21, 0,20,40.00,50.00,SummerDesignDay
8,45184436.95994987
3402,0.0
2,1, 8,21, 0,20,50.00,60.00,SummerDesignDay
8,45081319.97073683
3402,0.0
2,1, 8,21, 0,21, 0.00,10.00,SummerDesignDay
8,44971316.90565085
3402,0.0
2,1, 8,21, 0,21,10.00,20.00,SummerDesignDay
8,44850626.30924651
3402,0.0
2,1, 8,21, 0,21,20.00,30.00,SummerDesignDay
8,44725700.06387008
3402,0.0
2,1, 8,21, 0,21,30.00,40.00,SummerDesignDay
8,45130739.22027932
3402,0.0
2,1, 8,21, 0,21,40.00,50.00,SummerDesignDay
8,45033532.42104983
3402,0.0
2,1, 8,21, 0,21,50.00,60.00,SummerDesignDay
8,44952623.60896116
3402,0.0
2,1, 8,21, 0,22, 0.00,10.00,SummerDesignDay
8,44881149.75244488
3402,0.0
2,1, 8,21, 0,22,10.00,20.00,SummerDesignDay
8,44816589.53125216
3402,0.0
2,1, 8,21, 0,22,20.00,30.00,SummerDesignDay
8,44757110.74057309
3402,0.0
2,1, 8,21, 0,22,30.00,40.00,SummerDesignDay
8,44701335.08660439
3402,0.0
2,1, 8,21, 0,22,40.00,50.00,SummerDesignDay
8,44648657.26854954
3402,0.0
2,1, 8,21, 0,22,50.00,60.00,SummerDesignDay
8,44597829.08776575
3402,0.0
2,1, 8,21, 0,23, 0.00,10.00,SummerDesignDay
8,44560325.49715325
3402,0.0
2,1, 8,21, 0,23,10.00,20.00,SummerDesignDay
8,44531612.97658804
3402,0.0
2,1, 8,21, 0,23,20.00,30.00,SummerDesignDay
8,44503115.66749755
3402,0.0
2,1, 8,21, 0,23,30.00,40.00,SummerDesignDay
8,44474728.849861
3402,0.0
2,1, 8,21, 0,23,40.00,50.00,SummerDesignDay
8,44446374.1504285
3402,0.0
2,1, 8,21, 0,23,50.00,60.00,SummerDesignDay
8,44418078.394488335
3402,0.0
2,1, 8,21, 0,24, 0.00,10.00,SummerDesignDay
8,44401238.78166471
3402,0.0
2,1, 8,21, 0,24,10.00,20.00,SummerDesignDay
8,44384267.19360794
3402,0.0
2,1, 8,21, 0,24,20.00,30.00,SummerDesignDay
8,44367144.237190574
3402,0.0
2,1, 8,21, 0,24,30.00,40.00,SummerDesignDay
8,44349849.290128894
3402,0.0
2,1, 8,21, 0,24,40.00,50.00,SummerDesignDay
8,44332373.81535435
3402,0.0
2,1, 8,21, 0,24,50.00,60.00,SummerDesignDay
8,44314722.33732968
3402,0.0
1,KODIAK ANN CLG .4% CONDNS WB=>MDB HVAC Sizing Pass 1,  57.75,-152.49,  -9.00,  34.00
2,1, 8,21, 0, 1, 0.00,10.00,SummerDesignDay
8,43717346.45646885
3402,0.0
2,1, 8,21, 0, 1,10.00,20.00,SummerDesignDay
8,43701941.86649632
3402,0.0
2,1, 8,21, 0, 1,20.00,30.00,SummerDesignDay
8,43686434.843672305
3402,0.0
2,1, 8,21, 0, 1,30.00,40.00,SummerDesignDay
8,43670833.67598812
3402,0.0
2,1, 8,21, 0, 1,40.00,50.00,SummerDesignDay
8,43655146.032191366
3402,0.0
2,1, 8,21, 0, 1,50.00,60.00,SummerDesignDay
8,43639377.59163166
3402,0.0
2,1, 8,21, 0, 2, 0.00,10.00,SummerDesignDay
8,43626134.844589576
3402,0.0
2,1, 8,21, 0, 2,10.00,20.00,SummerDesignDay
8,43612813.50354502
3402,0.0
2,1, 8,21, 0, 2,20.00,30.00,SummerDesignDay
8,43599431.397304624
3402,0.0
2,1, 8,21, 0, 2,30.00,40.00,SummerDesignDay
8,43585999.72603902
3402,0.0
2,1, 8,21, 0, 2,40.00,50.00,SummerDesignDay
8,43572527.62359449
3402,0.0
2,1, 8,21, 0, 2,50.00,60.00,SummerDesignDay
8,43559019.97644076
3402,0.0
2,1, 8,21, 0, 3, 0.00,10.00,SummerDesignDay
8,43546765.273004904
3402,0.0
2,1, 8,21, 0, 3,10.00,20.00,SummerDesignDay
8,43534478.43502688
3402,0.0
2,1, 8,21, 0, 3,20.00,30.00,SummerDesignDay
8,43522172.17354801
3402,0.0
2,1, 8,21, 0, 3,30.00,40.00,SummerDesignDay
8,43509837.64770456
3402,0.0
2,1, 8,21, 0, 3,40.00,50.00,SummerDesignDay
8,43497476.703315966
3402,0.0
2,1, 8,21, 0, 3,50.00,60.00,SummerDesignDay
8,43485096.1397513
3402,0.0
2,1, 8,21, 0, 4, 0.00,10.00,SummerDesignDay
8,43472696.10445448
3402,0.0
2,1, 8,21, 0, 4,10.00,20.00,SummerDesignDay
8,43460276.43265022
3402,0.0
2,1, 8,21, 0, 4,20.00,30.00,SummerDesignDay
8,43447837.51339697
3402,0.0
2,1, 8,21, 0, 4,30.00,40.00,SummerDesignDay
8,43435379.89112419
3402,0.0
2,1, 8,21, 0, 4,40.00,50.00,SummerDesignDay
8,43422904.45031081
3402,0.0
2,1, 8,21, 0, 4,50.00,60.00,SummerDesignDay
8,43410411.95664304
3402,0.0
2,1, 8,21, 0, 5, 0.00,10.00,SummerDesignDay
8,43399162.83092146
3402,0.0
2,1, 8,21, 0, 5,10.00,20.00,SummerDesignDay
8,43387897.73288646
3402,0.0
2,1, 8,21, 0, 5,20.00,30.00,SummerDesignDay
8,43376624.20399648
3402,0.0
2,1, 8,21, 0, 5,30.00,40.00,SummerDesignDay
8,43365347.35770265
3402,0.0
2,1, 8,21, 0, 5,40.00,50.00,SummerDesignDay
8,43354070.68532212
3402,0.0
2,1, 8,21, 0, 5,50.00,60.00,SummerDesignDay
8,44597512.293297686
3402,0.0
2,1, 8,21, 0, 6, 0.00,10.00,SummerDesignDay
8,43336521.58145145
3402,0.0
2,1, 8,21, 0, 6,10.00,20.00,SummerDesignDay
8,43330254.01053512
3402,0.0
2,1, 8,21, 0, 6,20.00,30.00,SummerDesignDay
8,43324018.15222673
3402,0.0
2,1, 8,21, 0, 6,30.00,40.00,SummerDesignDay
8,43317828.301644586
3402,0.0
2,1, 8,21, 0, 6,40.00,50.00,SummerDesignDay
8,43311694.17432994
3402,0.0
2,1, 8,21, 0, 6,50.00,60.00,SummerDesignDay
8,42944173.28352595
3402,0.0
2,1, 8,21, 0, 7, 0.00,10.00,SummerDesignDay
8,47421200.36785532
3402,0.0
2,1, 8,21, 0, 7,10.00,20.00,SummerDesignDay
8,46076359.33313321
3402,0.0
2,1, 8,21, 0, 7,20.00,30.00,SummerDesignDay
8,45961815.79138127
3402,0.0
2,1, 8,21, 0, 7,30.00,40.00,SummerDesignDay
8,45796320.564995244
3402,0.0
2,1, 8,21, 0, 7,40.00,50.00,SummerDesignDay
8,45434875.551253065
3402,0.0
2,1, 8,21, 0, 7,50.00,60.00,SummerDesignDay
8,45342512.83501089
3402,0.0
2,1, 8,21, 0, 8, 0.00,10.00,SummerDesignDay
8,45288986.657896906
3402,0.0
2,1, 8,21, 0, 8,10.00,20.00,SummerDesignDay
8,45250220.463343
3402,0.0
2,1, 8,21, 0, 8,20.00,30.00,SummerDesignDay
8,45223310.12057785
3402,0.0
2,1, 8,21, 0, 8,30.00,40.00,SummerDesignDay
8,45206143.56148348
3402,0.0
2,1, 8,21, 0, 8,40.00,50.00,SummerDesignDay
8,45197518.61035815
3402,0.0
2,1, 8,21, 0, 8,50.00,60.00,SummerDesignDay
8,45196349.381449886
3402,0.0
2,1, 8,21, 0, 9, 0.00,10.00,SummerDesignDay
8,53194282.421479225
3402,0.0
2,1, 8,21, 0, 9,10.00,20.00,SummerDesignDay
8,53218545.14118529
3402,0.0
2,1, 8,21, 0, 9,20.00,30.00,SummerDesignDay
8,53244736.525727086
3402,0.0
2,1, 8,21, 0, 9,30.00,40.00,SummerDesignDay
8,53274658.47367298
3402,0.0
2,1, 8,21, 0, 9,40.00,50.00,SummerDesignDay
8,53308032.732885204
3402,0.0
2,1, 8,21, 0, 9,50.00,60.00,SummerDesignDay
8,53344461.94444052
3402,0.0
2,1, 8,21, 0,10, 0.00,10.00,SummerDesignDay
8,53379569.19057498
3402,0.0
2,1, 8,21, 0,10,10.00,20.00,SummerDesignDay
8,53417184.8729615
3402,0.0
2,1, 8,21, 0,10,20.00,30.00,SummerDesignDay
8,53457218.867501095
3402,0.0
2,1, 8,21, 0,10,30.00,40.00,SummerDesignDay
8,53499477.25965994
3402,0.0
2,1, 8,21, 0,10,40.00,50.00,SummerDesignDay
8,54798442.121905826
3402,0.0
2,1, 8,21, 0,10,50.00,60.00,SummerDesignDay
8,53590064.6716069
3402,0.0
2,1, 8,21, 0,11, 0.00,10.00,SummerDesignDay
8,53633573.79355837
3402,0.0
2,1, 8,21, 0,11,10.00,20.00,SummerDesignDay
8,53678704.61334045
3402,0.0
2,1, 8,21, 0,11,20.00,30.00,SummerDesignDay
8,53725330.322538115
3402,0.0
2,1, 8,21, 0,11,30.00,40.00,SummerDesignDay
8,53773002.81150321
3402,0.0
2,1, 8,21, 0,11,40.00,50.00,SummerDesignDay
8,53822151.09776813
3402,0.0
2,1, 8,21, 0,11,50.00,60.00,SummerDesignDay
8,53947451.901794106
3402,0.0
2,1, 8,21, 0,12, 0.00,10.00,SummerDesignDay
8,54027117.02232833
3402,0.0
2,1, 8,21, 0,12,10.00,20.00,SummerDesignDay
8,54112675.486866444
3402,0.0
2,1, 8,21, 0,12,20.00,30.00,SummerDesignDay
8,54193482.4811661
3402,0.0
2,1, 8,21, 0,12,30.00,40.00,SummerDesignDay
8,54273370.90657412
3402,0.0
2,1, 8,21, 0,12,40.00,50.00,SummerDesignDay
8,54352353.414587736
3402,0.0
2,1, 8,21, 0,12,50.00,60.00,SummerDesignDay
8,54430637.658028245
3402,0.0
2,1, 8,21, 0,13, 0.00,10.00,SummerDesignDay
8,46502772.21768493
3402,0.0
2,1, 8,21, 0,13,10.00,20.00,SummerDesignDay
8,46562784.94233342
3402,0.0
2,1, 8,21, 0,13,20.00,30.00,SummerDesignDay
8,46623905.94106572
3402,0.0
2,1, 8,21, 0,13,30.00,40.00,SummerDesignDay
8,46685558.59234069
3402,0.0
2,1, 8,21, 0,13,40.00,50.00,SummerDesignDay
8,46746665.48171652
3402,0.0
2,1, 8,21, 0,13,50.00,60.00,SummerDesignDay
8,46806986.70955433
3402,0.0
2,1, 8,21, 0,14, 0.00,10.00,SummerDesignDay
8,54856684.918401256
3402,0.0
2,1, 8,21, 0,14,10.00,20.00,SummerDesignDay
8,54916147.2446335
3402,0.0
2,1, 8,21, 0,14,20.00,30.00,SummerDesignDay
8,54971347.71707148
3402,0.0
2,1, 8,21, 0,14,30.00,40.00,SummerDesignDay
8,55024676.80255192
3402,0.0
2,1, 8,21, 0,14,40.00,50.00,SummerDesignDay
8,55086695.35834757
3402,0.0
2,1, 8,21, 0,14,50.00,60.00,SummerDesignDay
8,55143010.978186645
3402,0.0
2,1, 8,21, 0,15, 0.00,10.00,SummerDesignDay
8,55180949.95876921
3402,0.0
2,1, 8,21, 0,15,10.00,20.00,SummerDesignDay
8,55217604.66878336
3402,0.0
2,1, 8,21, 0,15,20.00,30.00,SummerDesignDay
8,55252108.5633774
3402,0.0
2,1, 8,21, 0,15,30.00,40.00,SummerDesignDay
8,56539183.018531896
3402,0.0
2,1, 8,21, 0,15,40.00,50.00,SummerDesignDay
8,55314636.04186327
3402,0.0
2,1, 8,21, 0,15,50.00,60.00,SummerDesignDay
8,55342426.42068462
3402,0.0
2,1, 8,21, 0,16, 0.00,10.00,SummerDesignDay
8,55346328.46977101
3402,0.0
2,1, 8,21, 0,16,10.00,20.00,SummerDesignDay
8,55444104.424804285
3402,0.0
2,1, 8,21, 0,16,20.00,30.00,SummerDesignDay
8,55444114.592242025
3402,0.0
2,1, 8,21, 0,16,30.00,40.00,SummerDesignDay
8,55478264.747097425
3402,0.0
2,1, 8,21, 0,16,40.00,50.00,SummerDesignDay
8,55511368.20489886
3402,0.0
2,1, 8,21, 0,16,50.00,60.00,SummerDesignDay
8,55533791.439453594
3402,0.0
2,1, 8,21, 0,17, 0.00,10.00,SummerDesignDay
8,55542314.85448661
3402,0.0
2,1, 8,21, 0,17,10.00,20.00,SummerDesignDay
8,55545873.835775375
3402,0.0
2,1, 8,21, 0,17,20.00,30.00,SummerDesignDay
8,55543946.18403014
3402,0.0
2,1, 8,21, 0,17,30.00,40.00,SummerDesignDay
8,55537061.62799061
3402,0.0
2,1, 8,21, 0,17,40.00,50.00,SummerDesignDay
8,55524214.056149386
3402,0.0
2,1, 8,21, 0,17,50.00,60.00,SummerDesignDay
8,55505754.29803603
3402,0.0
2,1, 8,21, 0,18, 0.00,10.00,SummerDesignDay
8,44441353.84072164
3402,0.0
2,1, 8,21, 0,18,10.00,20.00,SummerDesignDay
8,44422667.64877193
3402,0.0
2,1, 8,21, 0,18,20.00,30.00,SummerDesignDay
8,44403795.80724781
3402,0.0
2,1, 8,21, 0,18,30.00,40.00,SummerDesignDay
8,44383342.697826214
3402,0.0
2,1, 8,21, 0,18,40.00,50.00,SummerDesignDay
8,44359828.6010707
3402,0.0
2,1, 8,21, 0,18,50.00,60.00,SummerDesignDay
8,44341905.224297866
3402,0.0
2,1, 8,21, 0,19, 0.00,10.00,SummerDesignDay
8,44318726.72885241
3402,0.0
2,1, 8,21, 0,19,10.00,20.00,SummerDesignDay
8,44504927.89845108
3402,0.0
2,1, 8,21, 0,19,20.00,30.00,SummerDesignDay
8,44666717.04034035
3402,0.0
2,1, 8,21, 0,19,30.00,40.00,SummerDesignDay
8,44623193.55386703
3402,0.0
2,1, 8,21, 0,19,40.00,50.00,SummerDesignDay
8,44666953.52047975
3402,0.0
2,1, 8,21, 0,19,50.00,60.00,SummerDesignDay
8,44658155.816936396
3402,0.0
2,1, 8,21, 0,20, 0.00,10.00,SummerDesignDay
8,44644856.50570818
3402,0.0
2,1, 8,21, 0,20,10.00,20.00,SummerDesignDay
8,44618702.985680155
3402,0.0
2,1, 8,21, 0,20,20.00,30.00,SummerDesignDay
8,44573335.49593914
3402,0.0
2,1, 8,21, 0,20,30.00,40.00,SummerDesignDay
8,45762743.353421874
3402,0.0
2,1, 8,21, 0,20,40.00,50.00,SummerDesignDay
8,44424221.43358289
3402,0.0
2,1, 8,21, 0,20,50.00,60.00,SummerDesignDay
8,44320099.10320416
3402,0.0
2,1, 8,21, 0,21, 0.00,10.00,SummerDesignDay
8,44208202.18656543
3402,0.0
2,1, 8,21, 0,21,10.00,20.00,SummerDesignDay
8,44094449.671302594
3402,0.0
2,1, 8,21, 0,21,20.00,30.00,SummerDesignDay
8,43974740.29141877
3402,0.0
2,1, 8,21, 0,21,30.00,40.00,SummerDesignDay
8,44386787.23515097
3402,0.0
2,1, 8,21, 0,21,40.00,50.00,SummerDesignDay
8,44308262.62782988
3402,0.0
2,1, 8,21, 0,21,50.00,60.00,SummerDesignDay
8,44275414.66427425
3402,0.0
2,1, 8,21, 0,22, 0.00,10.00,SummerDesignDay
8,44250463.51220615
3402,0.0
2,1, 8,21, 0,22,10.00,20.00,SummerDesignDay
8,44227351.86569834
3402,0.0
2,1, 8,21, 0,22,20.00,30.00,SummerDesignDay
8,44205374.83303666
3402,0.0
2,1, 8,21, 0,22,30.00,40.00,SummerDesignDay
8,44183794.156647734
3402,0.0
2,1, 8,21, 0,22,40.00,50.00,SummerDesignDay
8,44164056.17719044
3402,0.0
2,1, 8,21, 0,22,50.00,60.00,SummerDesignDay
8,44143540.16914032
3402,0.0
2,1, 8,21, 0,23, 0.00,10.00,SummerDesignDay
8,44126571.248086125
3402,0.0
2,1, 8,21, 0,23,10.00,20.00,SummerDesignDay
8,44109492.15703421
3402,0.0
2,1, 8,21, 0,23,20.00,30.00,SummerDesignDay
8,44092453.445549086
3402,0.0
2,1, 8,21, 0,23,30.00,40.00,SummerDesignDay
8,44075561.754637234
3402,0.0
2,1, 8,21, 0,23,40.00,50.00,SummerDesignDay
8,44058458.82801408
3402,0.0
2,1, 8,21, 0,23,50.00,60.00,SummerDesignDay
8,44041304.47673342
3402,0.0
2,1, 8,21, 0,24, 0.00,10.00,SummerDesignDay
8,44024081.842927344
3402,0.0
2,1, 8,21, 0,24,10.00,20.00,SummerDesignDay
8,44006779.227364525
3402,0.0
2,1, 8,21, 0,24,20.00,30.00,SummerDesignDay
8,43990058.24876246
3402,0.0
2,1, 8,21, 0,24,30.00,40.00,SummerDesignDay
8,43973700.47369609
3402,0.0
2,1, 8,21, 0,24,40.00,50.00,SummerDesignDay
8,43957228.89928567
3402,0.0
2,1, 8,21, 0,24,50.00,60.00,SummerDesignDay
8,43940638.21948912
3402,0.0
1,KODIAK ANN HTG 99.6% CONDNS DB HVAC Sizing Pass 1,  57.75,-152.49,  -9.00,  34.00
2,1, 1,21, 0, 1, 0.00,10.00,WinterDesignDay
8,59030029.161147095
3402,79412306.14672631
2,1, 1,21, 0, 1,10.00,20.00,WinterDesignDay
8,59043765.0171459
3402,79461742.11003014
2,1, 1,21, 0, 1,20.00,30.00,WinterDesignDay
8,59057229.076642305
3402,79510543.64070663
2,1, 1,21, 0, 1,30.00,40.00,WinterDesignDay
8,59070434.71030283
3402,79558730.79978079
2,1, 1,21, 0, 1,40.00,50.00,WinterDesignDay
8,59083394.11620298
3402,79606320.78709295
2,1, 1,21, 0, 1,50.00,60.00,WinterDesignDay
8,59096118.4354626
3402,79653328.53482558
2,1, 1,21, 0, 2, 0.00,10.00,WinterDesignDay
8,59108617.85850057
3402,79699767.17924292
2,1, 1,21, 0, 2,10.00,20.00,WinterDesignDay
8,59120901.72203599
3402,79745648.4351923
2,1, 1,21, 0, 2,20.00,30.00,WinterDesignDay
8,59132978.59715525
3402,79790982.89299567
2,1, 1,21, 0, 2,30.00,40.00,WinterDesignDay
8,59144856.36889516
3402,79835780.25344972
2,1, 1,21, 0, 2,40.00,50.00,WinterDesignDay
8,59156542.307876885
3402,79880049.51350269
2,1, 1,21, 0, 2,50.00,60.00,WinterDesignDay
8,59168043.13457037
3402,79923799.11264499
2,1, 1,21, 0, 3, 0.00,10.00,WinterDesignDay
8,59179365.07678495
3402,79967037.04804479
2,1, 1,21, 0, 3,10.00,20.00,WinterDesignDay
8,59190513.92098174
3402,80009770.96482712
2,1, 1,21, 0, 3,20.00,30.00,WinterDesignDay
8,59201495.057981215
3402,80052008.22661895
2,1, 1,21, 0, 3,30.00,40.00,WinterDesignDay
8,59212313.523614705
3402,80093755.97043985
2,1, 1,21, 0, 3,40.00,50.00,WinterDesignDay
8,59222974.034833506
3402,80135021.14919165
2,1, 1,21, 0, 3,50.00,60.00,WinterDesignDay
8,59233481.02175104
3402,80175810.56435111
2,1, 1,21, 0, 4, 0.00,10.00,WinterDesignDay
8,59243838.65605764
3402,80216130.89092822
2,1, 1,21, 0, 4,10.00,20.00,WinterDesignDay
8,59254050.87620464
3402,80255988.69634382
2,1, 1,21, 0, 4,20.00,30.00,WinterDesignDay
8,59264121.40972159
3402,80295390.45453185
2,1, 1,21, 0, 4,30.00,40.00,WinterDesignDay
8,59274053.79299039
3402,80334342.55632156
2,1, 1,21, 0, 4,40.00,50.00,WinterDesignDay
8,59283851.38877017
3402,80372851.31691462
2,1, 1,21, 0, 4,50.00,60.00,WinterDesignDay
8,59293517.40173342
3402,80410922.9811237
2,1, 1,21, 0, 5, 0.00,10.00,WinterDesignDay
8,59303054.892245986
3402,80448563.72689489
2,1, 1,21, 0, 5,10.00,20.00,WinterDesignDay
8,59312466.788597986
3402,80485779.66751575
2,1, 1,21, 0, 5,20.00,30.00,WinterDesignDay
8,59321755.89786932
3402,80522576.8528484
2,1, 1,21, 0, 5,30.00,40.00,WinterDesignDay
8,59330924.91559062
3402,80558961.2698285
2,1, 1,21, 0, 5,40.00,50.00,WinterDesignDay
8,59339976.434344366
3402,80594938.84244668
2,1, 1,21, 0, 5,50.00,60.00,WinterDesignDay
8,60603629.37809695
3402,80630515.4313488
2,1, 1,21, 0, 6, 0.00,10.00,WinterDesignDay
8,59357126.43051557
3402,80665090.65690121
2,1, 1,21, 0, 6,10.00,20.00,WinterDesignDay
8,59365313.956811085
3402,80699306.26510206
2,1, 1,21, 0, 6,20.00,30.00,WinterDesignDay
8,59373518.16745754
3402,80733288.35795034
2,1, 1,21, 0, 6,30.00,40.00,WinterDesignDay
8,59381654.683678135
3402,80766966.04286852
2,1, 1,21, 0, 6,40.00,50.00,WinterDesignDay
8,59389725.98177163
3402,80800326.20313963
2,1, 1,21, 0, 6,50.00,60.00,WinterDesignDay
8,59397731.12419492
3402,80833362.33986668
2,1, 1,21, 0, 7, 0.00,10.00,WinterDesignDay
8,59591122.312153496
3402,96068137.24078763
2,1, 1,21, 0, 7,10.00,20.00,WinterDesignDay
8,59598347.63565042
3402,87971586.46556753
2,1, 1,21, 0, 7,20.00,30.00,WinterDesignDay
8,59600960.44278989
3402,90118709.30692644
2,1, 1,21, 0, 7,30.00,40.00,WinterDesignDay
8,59600747.2427805
3402,87546034.34896609
2,1, 1,21, 0, 7,40.00,50.00,WinterDesignDay
8,59599909.4746167
3402,87202069.95147756
2,1, 1,21, 0, 7,50.00,60.00,WinterDesignDay
8,59599227.43834135
3402,87027415.2172637
2,1, 1,21, 0, 8, 0.00,10.00,WinterDesignDay
8,59598814.352657884
3402,102966160.57107605
2,1, 1,21, 0, 8,10.00,20.00,WinterDesignDay
8,59597299.205539964
3402,95140549.96854559
2,1, 1,21, 0, 8,20.00,30.00,WinterDesignDay
8,59591149.33678569
3402,96549536.71894684
2,1, 1,21, 0, 8,30.00,40.00,WinterDesignDay
8,59582448.75609338
3402,94136816.94720857
2,1, 1,21, 0, 8,40.00,50.00,WinterDesignDay
8,59573532.18535194
3402,93608530.72857141
2,1, 1,21, 0, 8,50.00,60.00,WinterDesignDay
8,59565156.85880868
3402,93314394.11131625
2,1, 1,21, 0, 9, 0.00,10.00,WinterDesignDay
8,66349979.1850973
3402,100155637.91576502
2,1, 1,21, 0, 9,10.00,20.00,WinterDesignDay
8,66251301.75373348
3402,91348745.53528889
2,1, 1,21, 0, 9,20.00,30.00,WinterDesignDay
8,66174489.44927563
3402,96510712.73156224
2,1, 1,21, 0, 9,30.00,40.00,WinterDesignDay
8,66100253.84331304
3402,95028720.5517113
2,1, 1,21, 0, 9,40.00,50.00,WinterDesignDay
8,66029097.62628321
3402,94678782.87475696
2,1, 1,21, 0, 9,50.00,60.00,WinterDesignDay
8,65960441.09574488
3402,94432294.79374328
2,1, 1,21, 0,10, 0.00,10.00,WinterDesignDay
8,65894418.016735256
3402,94220711.06957372
2,1, 1,21, 0,10,10.00,20.00,WinterDesignDay
8,65831310.813956246
3402,94035921.29391985
2,1, 1,21, 0,10,20.00,30.00,WinterDesignDay
8,65771917.04813711
3402,93871983.17743072
2,1, 1,21, 0,10,30.00,40.00,WinterDesignDay
8,65715591.7255213
3402,93724282.03600946
2,1, 1,21, 0,10,40.00,50.00,WinterDesignDay
8,66369812.8856466
3402,93589388.22108378
2,1, 1,21, 0,10,50.00,60.00,WinterDesignDay
8,65064871.439364724
3402,93464703.82459937
2,1, 1,21, 0,11, 0.00,10.00,WinterDesignDay
8,65017571.68512897
3402,93348228.25251478
2,1, 1,21, 0,11,10.00,20.00,WinterDesignDay
8,64973094.33003793
3402,93238422.37205167
2,1, 1,21, 0,11,20.00,30.00,WinterDesignDay
8,64931343.4034925
3402,93134098.2516225
2,1, 1,21, 0,11,30.00,40.00,WinterDesignDay
8,64892327.967657566
3402,93034335.81815886
2,1, 1,21, 0,11,40.00,50.00,WinterDesignDay
8,64854839.426793195
3402,92938420.07343663
2,1, 1,21, 0,11,50.00,60.00,WinterDesignDay
8,64820293.682291456
3402,92846044.470539
2,1, 1,21, 0,12, 0.00,10.00,WinterDesignDay
8,64786446.34544098
3402,92756255.04020686
2,1, 1,21, 0,12,10.00,20.00,WinterDesignDay
8,64755161.75385069
3402,92669173.39006746
2,1, 1,21, 0,12,20.00,30.00,WinterDesignDay
8,64725420.551175185
3402,92584344.97766893
2,1, 1,21, 0,12,30.00,40.00,WinterDesignDay
8,64696959.410251975
3402,92501492.98240304
2,1, 1,21, 0,12,40.00,50.00,WinterDesignDay
8,64669812.470258765
3402,92420478.47881253
2,1, 1,21, 0,12,50.00,60.00,WinterDesignDay
8,64643875.4632379
3402,92341169.20848998
2,1, 1,21, 0,13, 0.00,10.00,WinterDesignDay
8,57825607.28334849
3402,93256735.00080806
2,1, 1,21, 0,13,10.00,20.00,WinterDesignDay
8,57892093.01634471
3402,93242318.13441075
2,1, 1,21, 0,13,20.00,30.00,WinterDesignDay
8,57936803.74800593
3402,93211234.99615787
2,1, 1,21, 0,13,30.00,40.00,WinterDesignDay
8,57979602.3461641
3402,93175161.17622536
2,1, 1,21, 0,13,40.00,50.00,WinterDesignDay
8,58020091.54053544
3402,93136693.59256512
2,1, 1,21, 0,13,50.00,60.00,WinterDesignDay
8,58059181.99185449
3402,93097004.3450259
2,1, 1,21, 0,14, 0.00,10.00,WinterDesignDay
8,64889847.83898624
3402,92062826.3550198
2,1, 1,21, 0,14,10.00,20.00,WinterDesignDay
8,64835453.03216004
3402,91961152.26527125
2,1, 1,21, 0,14,20.00,30.00,WinterDesignDay
8,64802244.693051904
3402,91877204.0085801
2,1, 1,21, 0,14,30.00,40.00,WinterDesignDay
8,64769386.43385871
3402,91799912.61935306
2,1, 1,21, 0,14,40.00,50.00,WinterDesignDay
8,64736466.493342906
3402,91726932.93944526
2,1, 1,21, 0,14,50.00,60.00,WinterDesignDay
8,64703064.35841469
3402,91657114.66738741
2,1, 1,21, 0,15, 0.00,10.00,WinterDesignDay
8,64669577.17241219
3402,91589832.26470053
2,1, 1,21, 0,15,10.00,20.00,WinterDesignDay
8,64636488.83947066
3402,91524682.69431998
2,1, 1,21, 0,15,20.00,30.00,WinterDesignDay
8,64604170.66125315
3402,91461365.9029877
2,1, 1,21, 0,15,30.00,40.00,WinterDesignDay
8,65827551.54430215
3402,91399641.24304
2,1, 1,21, 0,15,40.00,50.00,WinterDesignDay
8,64543503.148914196
3402,91339481.62560749
2,1, 1,21, 0,15,50.00,60.00,WinterDesignDay
8,64515196.607429266
3402,91280550.40605745
2,1, 1,21, 0,16, 0.00,10.00,WinterDesignDay
8,64487950.78959383
3402,91222701.75394332