Program Version,EnergyPlus, Version 23.1.0-87ed9199d4, YMD=2023.06.21 09:15
1,5,Environment Title[],Latitude[deg],Longitude[deg],Time Zone[],Elevation[m]
2,8,Day of Simulation[],Month[],Day of Month[],DST Indicator[1=yes 0=no],Hour[],StartMinute[],EndMinute[],DayType
3,5,Cumulative Day of Simulation[],Month[],Day of Month[],DST Indicator[1=yes 0=no],DayType  ! When Daily Report Variables Requested
4,2,Cumulative Days of Simulation[],Month[]  ! When Monthly Report Variables Requested
5,1,Cumulative Days of Simulation[] ! When Run Period Report Variables Requested
6,1,Calendar Year of Simulation[] ! When Annual Report Variables Requested
8,1,Electricity:Facility [J] !TimeStep
3217,1,NaturalGas:Facility [J] !TimeStep
2462,1,DistrictHeating:Facility [J] !TimeStep
End of Data Dictionary
1,RUN PERIOD 1,  57.75,-152.50,  -9.00,   5.00
2,1, 1, 1, 0, 1, 0.00,60.00,Sunday
8,65942525.080891855
2462,68756481.79946515
3217,0.0
2,1, 1, 1, 0, 2, 0.00,60.00,Sunday
8,65988851.821761586
2462,69912988.73771772
3217,0.0
2,1, 1, 1, 0, 3, 0.00,60.00,Sunday
8,65827969.997052245
2462,67019690.460535355
3217,0.0
2,1, 1, 1, 0, 4, 0.00,60.00,Sunday
8,65390286.63292967
2462,59766944.86823141
3217,0.0
2,1, 1, 1, 0, 5, 0.00,60.00,Sunday
8,65383416.005276755
2462,59421848.510619394
3217,4210852.302114851
2,1, 1, 1, 0, 6, 0.00,60.00,Sunday
8,64816094.439420626
2462,51117694.92362368
3217,3179158.560550645
2,1, 1, 1, 0, 7, 0.00,60.00,Sunday
8,67032080.17120898
2462,51802401.86035292
3217,2991168.327341095
2,1, 1, 1, 0, 8, 0.00,60.00,Sunday
8,67335671.0680524
2462,53940608.139440164
3217,3007802.9247314874
2,1, 1, 1, 0, 9, 0.00,60.00,Sunday
8,67358487.5331702
2462,41721504.229869194
3217,3028317.306466353
2,1, 1, 1, 0,10, 0.00,60.00,Sunday
8,67010987.6425094
2462,51164644.81559553
3217,3027958.750156703
2,1, 1, 1, 0,11, 0.00,60.00,Sunday
8,63175678.08741946
2462,46648781.77284333
3217,3064945.5586214596
2,1, 1, 1, 0,12, 0.00,60.00,Sunday
8,62175180.248525836
2462,38002253.67323696
3217,3125227.089890287
2,1, 1, 1, 0,13, 0.00,60.00,Sunday
8,62256003.03569235
2462,39863449.7225173
3217,3179656.6185223577
2,1, 1, 1, 0,14, 0.00,60.00,Sunday
8,62096851.33044767
2462,38755702.56722547
3217,3274508.4685805286
2,1, 1, 1, 0,15, 0.00,60.00,Sunday
8,61621050.03371655
2462,34502608.67089483
3217,3145601.9416713826
2,1, 1, 1, 0,16, 0.00,60.00,Sunday
8,62349496.28817331
2462,38214447.11094022
3217,3039578.5200961703
2,1, 1, 1, 0,17, 0.00,60.00,Sunday
8,67653558.79166076
2462,46203379.51107199
3217,3014078.204573978
2,1, 1, 1, 0,18, 0.00,60.00,Sunday
8,66963778.20214112
2462,53969138.70559267
3217,2934614.1635299013
2,1, 1, 1, 0,19, 0.00,60.00,Sunday
8,67051917.371598125
2462,71040404.2222254
3217,2842238.451883639
2,1, 1, 1, 0,20, 0.00,60.00,Sunday
8,67631290.86212057
2462,80077701.52566786
3217,2760733.2596671297
2,1, 1, 1, 0,21, 0.00,60.00,Sunday
8,66794519.21494301
2462,66542773.49242961
3217,104822.38960086169
2,1, 1, 1, 0,22, 0.00,60.00,Sunday
8,66564090.404765114
2462,61933550.12424173
3217,0.0
2,1, 1, 1, 0,23, 0.00,60.00,Sunday
8,65889255.77003444
2462,51572395.60923717
3217,0.0
2,1, 1, 1, 0,24, 0.00,60.00,Sunday
8,66025014.14464468
2462,52950617.09240297
3217,0.0
2,2, 1, 2, 0, 1, 0.00,60.00,Monday
8,76115056.99385785
2462,59405404.05555327
3217,4566794.396950808
2,2, 1, 2, 0, 2, 0.00,60.00,Monday
8,72976802.13060783
2462,51709369.016316555
3217,3791013.6142826504
2,2, 1, 2, 0, 3, 0.00,60.00,Monday
8,72132448.29915507
2462,55639591.547171704
3217,3640403.9464739007
2,2, 1, 2, 0, 4, 0.00,60.00,Monday
8,72221063.51496208
2462,70907026.37596902
3217,3286487.347255264
2,2, 1, 2, 0, 5, 0.00,60.00,Monday
8,70438617.13442722
2462,74986350.1968573
3217,3107220.9434431726
2,2, 1, 2, 0, 6, 0.00,60.00,Monday
8,67582077.74514344
2462,50566671.88032902
3217,3074007.7296630507
2,2, 1, 2, 0, 7, 0.00,60.00,Monday
8,68635654.28135626
2462,50375157.98113421
3217,3047994.718221218
2,2, 1, 2, 0, 8, 0.00,60.00,Monday
8,66519028.39340644
2462,28177570.730832696
3217,3018131.2498574965
2,2, 1, 2, 0, 9, 0.00,60.00,Monday
8,63361403.52045295
2462,549317.2042474556
3217,2985589.603019572
2,2, 1, 2, 0,10, 0.00,60.00,Monday
8,61895620.2861912
2462,0.0
3217,2971843.2417443143
2,2, 1, 2, 0,11, 0.00,60.00,Monday
8,58367637.96777693
2462,0.0
3217,2930923.172302935
2,2, 1, 2, 0,12, 0.00,60.00,Monday
8,58512139.45986689
2462,1348276.2484771938
3217,2911064.6619357583
2,2, 1, 2, 0,13, 0.00,60.00,Monday
8,58590753.18755183
2462,2161043.2272026474
3217,2880365.5026159724
2,2, 1, 2, 0,14, 0.00,60.00,Monday
8,58013536.54685993
2462,0.0
3217,2844814.998786335
2,2, 1, 2, 0,15, 0.00,60.00,Monday
8,57907030.15349574
2462,0.0
3217,2829078.7723580482
2,2, 1, 2, 0,16, 0.00,60.00,Monday
8,57811377.750951685
2462,0.0
3217,2796173.0653349115
2,2, 1, 2, 0,17, 0.00,60.00,Monday
8,62735327.70777393
2462,1979551.7870693505
3217,2750062.511361532
2,2, 1, 2, 0,18, 0.00,60.00,Monday
8,61380625.71412068
2462,1991789.402618111
3217,1121187.9355732815
2,2, 1, 2, 0,19, 0.00,60.00,Monday
8,63511623.99326669
2462,14574440.085363828
3217,0.0
2,2, 1, 2, 0,20, 0.00,60.00,Monday
8,64904008.84032548
2462,25048629.94973927
3217,0.0
2,2, 1, 2, 0,21, 0.00,60.00,Monday
8,66429816.570469394
2462,36111749.77023068
3217,0.0
2,2, 1, 2, 0,22, 0.00,60.00,Monday
8,92505198.66591492
2462,12914222.476181071
3217,4657458.853757994
2,2, 1, 2, 0,23, 0.00,60.00,Monday
8,105565638.12931854
2462,30718437.53000593
3217,4300073.891699044
2,2, 1, 2, 0,24, 0.00,60.00,Monday
8,104899402.17856018
2462,34097826.02326641
3217,4014113.7141954033
2,3, 1, 3, 0, 1, 0.00,60.00,Tuesday
8,75037524.65437454
2462,98418323.8253664
3217,4451258.172755741
2,3, 1, 3, 0, 2, 0.00,60.00,Tuesday
8,72457850.87304272
2462,45982885.27216428
3217,3980850.7178966515
2,3, 1, 3, 0, 3, 0.00,60.00,Tuesday
8,71554310.55624987
2462,49199740.05323123
3217,3927378.987726964
2,3, 1, 3, 0, 4, 0.00,60.00,Tuesday
8,70419082.4459685
2462,45819341.18418448
3217,3315088.8310299963
2,3, 1, 3, 0, 5, 0.00,60.00,Tuesday
8,68531341.74203901
2462,47118332.84792307
3217,3102059.7181445654
2,3, 1, 3, 0, 6, 0.00,60.00,Tuesday
8,66915462.50536845
2462,41346382.408100784
3217,3067732.3138883035
2,3, 1, 3, 0, 7, 0.00,60.00,Tuesday
8,67069315.10302178
2462,31395662.54606375
3217,3041380.504857363
2,3, 1, 3, 0, 8, 0.00,60.00,Tuesday
8,64999711.30346274
2462,15708868.36045393
3217,3021478.668321688
2,3, 1, 3, 0, 9, 0.00,60.00,Tuesday
8,63696536.93869043
2462,2024383.431245018
3217,2998602.4326730017
2,3, 1, 3, 0,10, 0.00,60.00,Tuesday
8,61918734.666489534
2462,98342.34367063729
3217,2966079.010644747
2,3, 1, 3, 0,11, 0.00,60.00,Tuesday
8,58367637.96777693
2462,0.0
3217,2945238.8281967836
2,3, 1, 3, 0,12, 0.00,60.00,Tuesday
8,58249604.16080464
2462,0.0
3217,2917660.878695001
2,3, 1, 3, 0,13, 0.00,60.00,Tuesday
8,58131570.35383228
2462,0.0
3217,2890463.3554243436
2,3, 1, 3, 0,14, 0.00,60.00,Tuesday
8,58013536.54685993
2462,0.0
3217,2875973.8902322478
2,3, 1, 3, 0,15, 0.00,60.00,Tuesday
8,57895502.73988756
2462,0.0
3217,2843030.3623293554
2,3, 1, 3, 0,16, 0.00,60.00,Tuesday
8,57902250.214240916
2462,0.0
3217,2826791.0064210324
2,3, 1, 3, 0,17, 0.00,60.00,Tuesday
8,62319128.958312556
2462,0.0
3217,2806877.103304873
2,3, 1, 3, 0,18, 0.00,60.00,Tuesday
8,61138106.65223708
2462,787820.3776210907
3217,0.0
2,3, 1, 3, 0,19, 0.00,60.00,Tuesday
8,62420089.893901445
2462,6908548.041674017
3217,0.0
2,3, 1, 3, 0,20, 0.00,60.00,Tuesday
8,63339520.15004599
2462,12420867.899533901
3217,0.0
2,3, 1, 3, 0,21, 0.00,60.00,Tuesday
8,63278799.58901027
2462,10432334.896032074
3217,0.0
2,3, 1, 3, 0,22, 0.00,60.00,Tuesday
8,92390375.09302604
2462,2224056.827870179
3217,5362781.280672445
2,3, 1, 3, 0,23, 0.00,60.00,Tuesday
8,105492377.31091788
2462,12051626.825628195
3217,4302322.6704458315
2,3, 1, 3, 0,24, 0.00,60.00,Tuesday
8,104847366.00866793
2462,18294834.781301815
3217,4015022.1382234897
2,4, 1, 4, 0, 1, 0.00,60.00,Wednesday
8,74225489.5248277
2462,77703250.74648423
3217,4149344.571291414
2,4, 1, 4, 0, 2, 0.00,60.00,Wednesday
8,72310401.08556367
2462,43508931.639299385
3217,3981322.849340836
2,4, 1, 4, 0, 3, 0.00,60.00,Wednesday
8,71872232.58626382
2462,53689921.71264467
3217,3926685.190688425
2,4, 1, 4, 0, 4, 0.00,60.00,Wednesday
8,70887871.78046757
2462,52379832.24428061
3217,3314874.880311683
2,4, 1, 4, 0, 5, 0.00,60.00,Wednesday
8,68567885.66521491
2462,47940886.03123585
3217,3102191.657091852
2,4, 1, 4, 0, 6, 0.00,60.00,Wednesday
8,66578460.657805875
2462,37344716.960506275
3217,3067978.2397272955
2,4, 1, 4, 0, 7, 0.00,60.00,Wednesday
8,66746757.10371464
2462,28154937.89721607
3217,3041652.331287005
2,4, 1, 4, 0, 8, 0.00,60.00,Wednesday
8,64416616.79968119
2462,11639536.907996299
3217,3027170.161551147
2,4, 1, 4, 0, 9, 0.00,60.00,Wednesday
8,63265360.01425172
2462,0.0
3217,2996757.9660292566
2,4, 1, 4, 0,10, 0.00,60.00,Wednesday
8,61895620.2861912
2462,0.0
3217,2962908.5531932665
2,4, 1, 4, 0,11, 0.00,60.00,Wednesday
8,58389345.94941708
2462,0.0
3217,2946415.1565077966
2,4, 1, 4, 0,12, 0.00,60.00,Wednesday
8,58260458.1516247
2462,0.0
3217,2917144.8794047865
2,4, 1, 4, 0,13, 0.00,60.00,Wednesday
8,58125469.93563413
2462,0.0
3217,2892166.179014872
2,4, 1, 4, 0,14, 0.00,60.00,Wednesday
8,58035244.52850007
2462,0.0
3217,2874986.0928803496
2,4, 1, 4, 0,15, 0.00,60.00,Wednesday
8,57997229.19399687
2462,0.0
3217,2847068.103166696
2,4, 1, 4, 0,16, 0.00,60.00,Wednesday
8,57902250.214240916
2462,0.0
3217,2817468.4011305175
2,4, 1, 4, 0,17, 0.00,60.00,Wednesday
8,62319126.26981082
2462,0.0
3217,2812471.698536803
2,4, 1, 4, 0,18, 0.00,60.00,Wednesday
8,61245817.963757
2462,1342074.4773906982
3217,0.0
2,4, 1, 4, 0,19, 0.00,60.00,Wednesday
8,62641960.67592242
2462,7571749.798121788
3217,0.0
2,4, 1, 4, 0,20, 0.00,60.00,Wednesday
8,63420920.273929134
2462,11271430.376003666
3217,0.0
2,4, 1, 4, 0,21, 0.00,60.00,Wednesday
8,66690151.71488753
2462,38097791.58649809
3217,0.0
2,4, 1, 4, 0,22, 0.00,60.00,Wednesday
8,92551719.26379745
2462,18708884.27134482
3217,5549473.012428668
2,4, 1, 4, 0,23, 0.00,60.00,Wednesday
8,105530773.46585536
2462,26688554.061544217
3217,4311069.312082518
2,4, 1, 4, 0,24, 0.00,60.00,Wednesday
8,104979769.48150772
2462,51060779.131614394
3217,4021156.4025341203
2,5, 1, 5, 0, 1, 0.00,60.00,Thursday
8,76135431.35399468
2462,115161453.43748584
3217,4059430.875466067
2,5, 1, 5, 0, 2, 0.00,60.00,Thursday
8,73096648.87481907
2462,55283355.799126975
3217,3981676.302780984
2,5, 1, 5, 0, 3, 0.00,60.00,Thursday
8,72466826.44682997
2462,63058362.79806854
3217,3926533.586831376
2,5, 1, 5, 0, 4, 0.00,60.00,Thursday
8,72194772.01785915
2462,73239151.96378985
3217,3314819.0988425044
2,5, 1, 5, 0, 5, 0.00,60.00,Thursday
8,67904902.77182466
2462,40052669.77119511
3217,3102231.110853389
2,5, 1, 5, 0, 6, 0.00,60.00,Thursday
8,68240669.66557167
2462,59383880.89948635
3217,3068050.3867818955
2,5, 1, 5, 0, 7, 0.00,60.00,Thursday
8,68168571.83312495
2462,45066544.77001829
3217,3041732.0081745675
2,5, 1, 5, 0, 8, 0.00,60.00,Thursday
8,67400778.09939274
2462,38690372.02853343
3217,3023565.3926256457
2,5, 1, 5, 0, 9, 0.00,60.00,Thursday
8,67704399.40662926
2462,31877794.449282818
3217,2995185.4049554747
2,5, 1, 5, 0,10, 0.00,60.00,Thursday
8,65142685.83090884
2462,21940856.97321374
3217,2965548.190128376
2,5, 1, 5, 0,11, 0.00,60.00,Thursday
8,60715606.32420732
2462,15094992.262984345
3217,2945157.895582647
2,5, 1, 5, 0,12, 0.00,60.00,Thursday
8,59889899.05373488
2462,10943230.422643613
3217,2918390.310064084
2,5, 1, 5, 0,13, 0.00,60.00,Thursday
8,60983246.30740883
2462,20604911.798732802
3217,2895178.2917013676
2,5, 1, 5, 0,14, 0.00,60.00,Thursday
8,60373297.69846016
2462,17976447.382882383
3217,2871748.4655263936
2,5, 1, 5, 0,15, 0.00,60.00,Thursday
8,60452862.16561504
2462,19306086.01700502
3217,2840442.9457366774
2,5, 1, 5, 0,16, 0.00,60.00,Thursday
8,60583211.53105686
2462,19385032.100578427
3217,2828110.6597551913
2,5, 1, 5, 0,17, 0.00,60.00,Thursday
8,70743391.850298
2462,85479723.06603366
3217,2807440.7452031486
2,5, 1, 5, 0,18, 0.00,60.00,Thursday
8,69422400.90432821
2462,86118738.5240041
3217,0.0
2,5, 1, 5, 0,19, 0.00,60.00,Thursday
8,70879555.23584089
2462,115320559.54545932
3217,0.0
2,5, 1, 5, 0,20, 0.00,60.00,Thursday
8,69859541.83199272
2462,95388088.70004888
3217,0.0
2,5, 1, 5, 0,21, 0.00,60.00,Thursday
8,69442372.29212967
2462,82563939.4962867
3217,0.0
2,5, 1, 5, 0,22, 0.00,60.00,Thursday
8,92774266.71183449
2462,54699932.86933408
3217,5657551.825572885
2,5, 1, 5, 0,23, 0.00,60.00,Thursday
8,105799292.84269202
2462,87688932.46013704
3217,4302957.145370317
2,5, 1, 5, 0,24, 0.00,60.00,Thursday
8,105200261.0046506
2462,103379106.41653097
3217,4015454.2405944853
2,6, 1, 6, 0, 1, 0.00,60.00,Friday
8,78476912.9031591
2462,157683402.4203498
3217,4001109.6676173834
2,6, 1, 6, 0, 2, 0.00,60.00,Friday
8,75706500.70194295
2462,101326282.66020136
3217,3981950.5295012393
2,6, 1, 6, 0, 3, 0.00,60.00,Friday
8,74316148.65287954
2462,97110774.86209187
3217,3926460.780727102
2,6, 1, 6, 0, 4, 0.00,60.00,Friday
8,72683632.27762942
2462,82359311.22230153
3217,3314786.7008441086
2,6, 1, 6, 0, 5, 0.00,60.00,Friday
8,70142873.66499113
2462,71078123.52175546
3217,3102256.7846566453
2,6, 1, 6, 0, 6, 0.00,60.00,Friday
8,68465964.81772086
2462,63855260.08476189
3217,3068096.678455175
2,6, 1, 6, 0, 7, 0.00,60.00,Friday
8,70448543.84592663
2462,79910059.27747388
3217,3041783.1086206804
2,6, 1, 6, 0, 8, 0.00,60.00,Friday
8,68026205.34902112
2462,46373633.31668122
3217,3023706.9297976866
2,6, 1, 6, 0, 9, 0.00,60.00,Friday
8,65419716.50316198
2462,13252996.821102835
3217,2996409.1512712953
2,6, 1, 6, 0,10, 0.00,60.00,Friday
8,62865612.22064318
2462,5205537.545861471
3217,2967327.6551647615
2,6, 1, 6, 0,11, 0.00,60.00,Friday
8,60555829.953038275
2462,13184592.372674081
3217,2943211.6093455297
2,6, 1, 6, 0,12, 0.00,60.00,Friday
8,60140665.209581
2462,12479459.185528196
3217,2916877.7439887
2,6, 1, 6, 0,13, 0.00,60.00,Friday
8,61463769.715298325
2462,24254514.689151775
3217,2897042.06632283
2,6, 1, 6, 0,14, 0.00,60.00,Friday
8,59420140.157872036
2462,9734069.827254266
3217,2873864.1313866414
2,6, 1, 6, 0,15, 0.00,60.00,Friday
8,59661686.483923376
2462,11062769.456515132
3217,2847073.63000977
2,6, 1, 6, 0,16, 0.00,60.00,Friday
8,61760093.408144586
2462,27858875.818284307
3217,2827620.6311144168
2,6, 1, 6, 0,17, 0.00,60.00,Friday
8,66842097.43505067
2462,74707510.13723758
3217,2805465.0364359342
2,6, 1, 6, 0,18, 0.00,60.00,Friday
8,68917420.17821108
2462,76922515.79886605
3217,0.0
2,6, 1, 6, 0,19, 0.00,60.00,Friday
8,71026007.58087535
2462,118343006.14599842
3217,0.0
2,6, 1, 6, 0,20, 0.00,60.00,Friday
8,71220789.57535666
2462,123606953.84790814
3217,0.0
2,6, 1, 6, 0,21, 0.00,60.00,Friday
8,70832996.71473202
2462,110102290.95534004
3217,0.0
2,6, 1, 6, 0,22, 0.00,60.00,Friday
8,93051279.68415529
2462,104923505.03438593
3217,5692216.029133981
2,6, 1, 6, 0,23, 0.00,60.00,Friday
8,106055234.82328688
2462,141314237.9410943
3217,4297438.118353364
2,6, 1, 6, 0,24, 0.00,60.00,Friday
8,105267771.1865124
2462,115083270.37949724
3217,4017498.192355626
2,7, 1, 7, 0, 1, 0.00,60.00,Saturday
8,70080847.09629172
2462,181148924.70003727
3217,1328089.7382002769
2,7, 1, 7, 0, 2, 0.00,60.00,Saturday
8,68797440.70536962
2462,129617677.27610284
3217,0.0
2,7, 1, 7, 0, 3, 0.00,60.00,Saturday
8,68728874.89528492
2462,127900700.21843147
3217,0.0
2,7, 1, 7, 0, 4, 0.00,60.00,Saturday
8,68076948.14871562
2462,112968428.89794494
3217,0.0
2,7, 1, 7, 0, 5, 0.00,60.00,Saturday
8,68746225.3197943
2462,127370133.48338433
3217,0.0
2,7, 1, 7, 0, 6, 0.00,60.00,Saturday
8,70090662.67803526
2462,129263783.6754282
3217,4308001.534009793
2,7, 1, 7, 0, 7, 0.00,60.00,Saturday
8,73213098.07631217
2462,126582932.84594947
3217,3444918.298941686
2,7, 1, 7, 0, 8, 0.00,60.00,Saturday
8,92743426.10810475
2462,75362465.41223414
3217,3488740.245962797
2,7, 1, 7, 0, 9, 0.00,60.00,Saturday
8,97300273.17540759
2462,92646520.42855707
3217,3628280.9407585375
2,7, 1, 7, 0,10, 0.00,60.00,Saturday
8,97321014.05782591
2462,71958860.86159898
3217,3797146.822855214
2,7, 1, 7, 0,11, 0.00,60.00,Saturday
8,92460230.97449207
2462,55963080.89271896
3217,3787094.2204376757
2,7, 1, 7, 0,12, 0.00,60.00,Saturday
8,90799349.0783971
2462,64805344.89850532
3217,3864041.8231432987
2,7, 1, 7, 0,13, 0.00,60.00,Saturday
8,69231828.00921677
2462,118097478.8764067
3217,3791731.4258336397
2,7, 1, 7, 0,14, 0.00,60.00,Saturday
8,67907536.36516064
2462,65128934.050506234
3217,3742852.7848835923
2,7, 1, 7, 0,15, 0.00,60.00,Saturday
8,68094878.19404301
2462,74444213.58716698
3217,3893125.8508608146
2,7, 1, 7, 0,16, 0.00,60.00,Saturday
8,68469392.72210608
2462,78485613.98198311
3217,3731214.766198135
2,7, 1, 7, 0,17, 0.00,60.00,Saturday
8,69318671.93982922
2462,89225750.98797007
3217,3677268.7180330893
2,7, 1, 7, 0,18, 0.00,60.00,Saturday
8,69854455.37107277
2462,91834713.7857144
3217,3264387.8620793596
2,7, 1, 7, 0,19, 0.00,60.00,Saturday
8,69362579.99315886
2462,100366022.72533163
3217,3083273.184907702
2,7, 1, 7, 0,20, 0.00,60.00,Saturday
8,69405234.0891861
2462,112005035.8340778
3217,2874432.9168736353
2,7, 1, 7, 0,21, 0.00,60.00,Saturday
8,69490183.34784192
2462,118935370.25089704
3217,0.0
2,7, 1, 7, 0,22, 0.00,60.00,Saturday
8,69254050.26032418
2462,113561896.60146783
3217,0.0
2,7, 1, 7, 0,23, 0.00,60.00,Saturday
8,69371671.35332116
2462,116020356.41789006
3217,0.0
2,7, 1, 7, 0,24, 0.00,60.00,Saturday
8,69508015.53672738
2462,118903889.83535503
3217,0.0
2,8, 1, 8, 0, 1, 0.00,60.00,Sunday
8,69758320.1868862
2462,120518888.46429037
3217,0.0
2,8, 1, 8, 0, 2, 0.00,60.00,Sunday
8,68514088.23669027
2462,120470749.42141359
3217,0.0
2,8, 1, 8, 0, 3, 0.00,60.00,Sunday
8,68189769.74715644
2462,113073216.81027687
3217,1538263.4755741258
2,8, 1, 8, 0, 4, 0.00,60.00,Sunday
8,68064578.6212738
2462,110049951.22586897
3217,0.0
2,8, 1, 8, 0, 5, 0.00,60.00,Sunday
8,67931243.44013852
2462,106562351.42475243
3217,3951591.241175185
2,8, 1, 8, 0, 6, 0.00,60.00,Sunday
8,67428453.20997104
2462,96586726.14518335
3217,3179076.0233234293
2,8, 1, 8, 0, 7, 0.00,60.00,Sunday
8,70341433.01900198
2462,111745477.70496702
3217,2991028.0065263417
2,8, 1, 8, 0, 8, 0.00,60.00,Sunday
8,70230684.97774005
2462,109981907.43245432
3217,3007648.546206824
2,8, 1, 8, 0, 9, 0.00,60.00,Sunday
8,70544056.47369485
2462,91316977.85219146
3217,3028162.17405713
2,8, 1, 8, 0,10, 0.00,60.00,Sunday
8,69587884.97024238
2462,96429237.26255807
3217,3027803.580816469
2,8, 1, 8, 0,11, 0.00,60.00,Sunday
8,65579449.018375486
2462,85770373.82148096
3217,3064792.062888439
2,8, 1, 8, 0,12, 0.00,60.00,Sunday
8,63968038.188131005
2462,60296079.6561969
3217,3125073.2342136395
2,8, 1, 8, 0,13, 0.00,60.00,Sunday
8,63710775.887965076
2462,55326552.257015504
3217,3179497.5734020984
2,8, 1, 8, 0,14, 0.00,60.00,Sunday
8,64756881.94912608
2462,71083890.52889824
3217,3274332.458303473
2,8, 1, 8, 0,15, 0.00,60.00,Sunday
8,65668261.68929664
2462,86651022.55862094
3217,3145429.364523434
2,8, 1, 8, 0,16, 0.00,60.00,Sunday
8,65842306.59209454
2462,88939468.78909387
3217,3039415.2480641375
2,8, 1, 8, 0,17, 0.00,60.00,Sunday
8,67862236.3360973
2462,102365216.62682298
3217,3013918.9293396324
2,8, 1, 8, 0,18, 0.00,60.00,Sunday
8,70757753.41988339
2462,121155410.10614048
3217,2934445.44819049
2,8, 1, 8, 0,19, 0.00,60.00,Sunday
8,70208830.66400564
2462,132005391.82758023
3217,2842044.4505117275
2,8, 1, 8, 0,20, 0.00,60.00,Sunday
8,70086141.8023243
2462,129563614.04705337
3217,2760500.4752576016
2,8, 1, 8, 0,21, 0.00,60.00,Sunday
8,69852362.11516178
2462,124107811.9068
3217,191004.5761976101
2,8, 1, 8, 0,22, 0.00,60.00,Sunday
8,69863864.92215738
2462,124053421.81815322
3217,0.0
2,8, 1, 8, 0,23, 0.00,60.00,Sunday
8,68518005.05259378
2462,95899299.03440079
3217,0.0
2,8, 1, 8, 0,24, 0.00,60.00,Sunday
8,69398939.25511616
2462,112577359.63942456
3217,0.0
2,9, 1, 9, 0, 1, 0.00,60.00,Monday
8,78576253.5417207
2462,102654660.36608711
3217,4565596.419985528
2,9, 1, 9, 0, 2, 0.00,60.00,Monday
8,76121291.57250302
2462,104942955.35628282
3217,3791011.1861458663
2,9, 1, 9, 0, 3, 0.00,60.00,Monday
8,74964272.21858631
2462,105055506.56410567
3217,3640402.290347917
2,9, 1, 9, 0, 4, 0.00,60.00,Monday
8,73968800.5139158
2462,102492421.3490735
3217,3286486.262799257
2,9, 1, 9, 0, 5, 0.00,60.00,Monday
8,70965812.4580428
2462,82893148.32742558
3217,3107220.3142699706
2,9, 1, 9, 0, 6, 0.00,60.00,Monday
8,69791221.16950548
2462,84389404.02919173
3217,3074007.2656149603
2,9, 1, 9, 0, 7, 0.00,60.00,Monday
8,70135156.35743053
2462,74595897.21552214
3217,3047994.2877529403
2,9, 1, 9, 0, 8, 0.00,60.00,Monday
8,67880130.08745876
2462,43544238.6538217
3217,3018133.9972272995
2,9, 1, 9, 0, 9, 0.00,60.00,Monday
8,64829180.39608632
2462,9755725.765553195
3217,2988282.956596022
2,9, 1, 9, 0,10, 0.00,60.00,Monday
8,63364362.43173033
2462,8199171.5422811415
3217,2970990.4494062085
2,9, 1, 9, 0,11, 0.00,60.00,Monday
8,59557799.57801074
2462,5403339.551656228
3217,2942085.930024243
2,9, 1, 9, 0,12, 0.00,60.00,Monday
8,59016063.17234959
2462,3038610.437114856
3217,2917027.8237355496
2,9, 1, 9, 0,13, 0.00,60.00,Monday
8,59989936.8746743
2462,8653607.743396657
3217,2870040.2340005254
2,9, 1, 9, 0,14, 0.00,60.00,Monday
8,58113531.461643495
2462,266457.011733384
3217,2846338.277155114
2,9, 1, 9, 0,15, 0.00,60.00,Monday
8,58951496.77656324
2462,4388006.269211625
3217,2821563.094393001
2,9, 1, 9, 0,16, 0.00,60.00,Monday
8,58607877.78401026
2462,2761661.3265859536
3217,2800396.2699362077
2,9, 1, 9, 0,17, 0.00,60.00,Monday
8,62162082.846700214
2462,16892898.053760756
3217,2745797.7242188915
2,9, 1, 9, 0,18, 0.00,60.00,Monday
8,66678304.30909169
2462,42801197.761148915
3217,1118673.5639684557
2,9, 1, 9, 0,19, 0.00,60.00,Monday
8,67430967.20584992
2462,51926460.138245106
3217,0.0
2,9, 1, 9, 0,20, 0.00,60.00,Monday
8,67189593.0372854
2462,48759967.20270507
3217,0.0
2,9, 1, 9, 0,21, 0.00,60.00,Monday
8,67334219.07170945
2462,47342993.8201358
3217,0.0
2,9, 1, 9, 0,22, 0.00,60.00,Monday
8,92505693.20766842
2462,13245298.335677976
3217,4326066.656215457
2,9, 1, 9, 0,23, 0.00,60.00,Monday
8,105573565.08989604
2462,32571846.061972383
3217,4337546.958584654
2,9, 1, 9, 0,24, 0.00,60.00,Monday
8,104919409.8958541
2462,38819166.52182469
3217,4667170.780110506
2,10, 1,10, 0, 1, 0.00,60.00,Tuesday
8,74897894.25990278
2462,96909771.95128031
3217,4575842.55546025
2,10, 1,10, 0, 2, 0.00,60.00,Tuesday
8,72610609.22582354
2462,47091412.5987879
3217,3983875.6632635705
2,10, 1,10, 0, 3, 0.00,60.00,Tuesday
8,71411530.7983876
2462,46724516.83772708
3217,3930687.34618339
2,10, 1,10, 0, 4, 0.00,60.00,Tuesday
8,70412933.39729199
2462,45037316.34923341
3217,3315892.274723331
2,10, 1,10, 0, 5, 0.00,60.00,Tuesday
8,67586773.99513207
2462,34677236.88844581
3217,3101698.5399087397
2,10, 1,10, 0, 6, 0.00,60.00,Tuesday
8,67141124.26910517
2462,42967149.48107416
3217,3067021.2038503243
2,10, 1,10, 0, 7, 0.00,60.00,Tuesday
8,65279867.925518125
2462,15930549.357104503
3217,3040592.72347619
2,10, 1,10, 0, 8, 0.00,60.00,Tuesday
8,65158874.20444832
2462,15613589.935424196
3217,3016232.251272636
2,10, 1,10, 0, 9, 0.00,60.00,Tuesday
8,63528450.94357734
2462,1224668.6334413392
3217,2997250.065412285
2,10, 1,10, 0,10, 0.00,60.00,Tuesday
8,61895620.2861912
2462,0.0
3217,2966252.946763152
2,10, 1,10, 0,11, 0.00,60.00,Tuesday
8,58417827.772043474
2462,0.0
3217,2942335.668232516
2,10, 1,10, 0,12, 0.00,60.00,Tuesday
8,58271312.14244478
2462,0.0
3217,2914290.4890201692
2,10, 1,10, 0,13, 0.00,60.00,Tuesday
8,58103088.53120587
2462,0.0
3217,2891423.541910598
2,10, 1,10, 0,14, 0.00,60.00,Tuesday
8,58013536.54685993
2462,0.0
3217,2876584.7707062904
2,10, 1,10, 0,15, 0.00,60.00,Tuesday
8,57895502.73988756
2462,0.0
3217,2847056.3878798434
2,10, 1,10, 0,16, 0.00,60.00,Tuesday
8,57845286.56898812
2462,0.0
3217,2820952.193787727
2,10, 1,10, 0,17, 0.00,60.00,Tuesday
8,59035925.84885169
2462,0.0
3217,2808453.8378234627
2,10, 1,10, 0,18, 0.00,60.00,Tuesday
8,61079118.55558738
2462,554028.9622331975
3217,0.0
2,10, 1,10, 0,19, 0.00,60.00,Tuesday
8,63330793.61503486
2462,11786091.476686154
3217,0.0
2,10, 1,10, 0,20, 0.00,60.00,Tuesday
8,64390088.73653682
2462,18342044.195793666
3217,0.0
2,10, 1,10, 0,21, 0.00,60.00,Tuesday
8,65018537.23471643
2462,21009865.312712844
3217,0.0
2,10, 1,10, 0,22, 0.00,60.00,Tuesday
8,92411968.32250254
2462,3716647.8078328036
3217,4641202.587349988
2,10, 1,10, 0,23, 0.00,60.00,Tuesday
8,105457459.30996397
2462,9201607.4862539
3217,4309084.178698665
2,10, 1,10, 0,24, 0.00,60.00,Tuesday
8,104798538.78222549
2462,10324500.944652312
3217,4068762.9785466697
2,11, 1,11, 0, 1, 0.00,60.00,Wednesday
8,73471211.58828816
2462,64871985.79583826
3217,4570084.131697001
2,11, 1,11, 0, 2, 0.00,60.00,Wednesday
8,70000696.81488007
2462,18248037.24294464
3217,3980821.8345179535
2,11, 1,11, 0, 3, 0.00,60.00,Wednesday
8,68941569.18797983
2462,18322765.359213717
3217,3927887.974926966
2,11, 1,11, 0, 4, 0.00,60.00,Wednesday
8,68203748.06881915
2462,19441259.287395895
3217,3315230.452764437
2,11, 1,11, 0, 5, 0.00,60.00,Wednesday
8,66234730.86826773
2462,19767736.967479154
3217,3101983.555293043
2,11, 1,11, 0, 6, 0.00,60.00,Wednesday
8,63788097.0340153
2462,11192258.310203226
3217,3067587.12103603
2,11, 1,11, 0, 7, 0.00,60.00,Wednesday
8,63249783.46841572
2462,3442297.384661926
3217,3046085.2244504127
2,11, 1,11, 0, 8, 0.00,60.00,Wednesday
8,62328498.804751754
2462,554736.4503433089
3217,3020582.10352238
2,11, 1,11, 0, 9, 0.00,60.00,Wednesday
8,63265119.12505635
2462,0.0
3217,2995915.093656913
2,11, 1,11, 0,10, 0.00,60.00,Wednesday
8,61895620.2861912
2462,0.0
3217,2966476.930001596
2,11, 1,11, 0,11, 0.00,60.00,Wednesday
8,58469364.42188624
2462,0.0
3217,2942925.188647733
2,11, 1,11, 0,12, 0.00,60.00,Wednesday
8,58271312.14244478
2462,0.0
3217,2913681.7615380706
2,11, 1,11, 0,13, 0.00,60.00,Wednesday
8,58187187.153508864
2462,0.0
3217,2890516.6660993653
2,11, 1,11, 0,14, 0.00,60.00,Wednesday
8,58069153.34653651
2462,0.0
3217,2874343.733083396
2,11, 1,11, 0,15, 0.00,60.00,Wednesday
8,57997229.19399687
2462,0.0
3217,2843178.8879890274
2,11, 1,11, 0,16, 0.00,60.00,Wednesday
8,57902250.214240916
2462,0.0
3217,2821243.7587406756
2,11, 1,11, 0,17, 0.00,60.00,Wednesday
8,59035812.30184644
2462,0.0
3217,2808664.98449672
2,11, 1,11, 0,18, 0.00,60.00,Wednesday
8,60978915.19142944
2462,83467.11599493379
3217,0.0
2,11, 1,11, 0,19, 0.00,60.00,Wednesday
8,62474465.37254561
2462,5300004.786615599
3217,0.0
2,11, 1,11, 0,20, 0.00,60.00,Wednesday
8,63049237.812027946
2462,8040203.025021481
3217,0.0
2,11, 1,11, 0,21, 0.00,60.00,Wednesday
8,64013662.62515227
2462,13173560.53468417
3217,0.0
2,11, 1,11, 0,22, 0.00,60.00,Wednesday
8,92375371.07636438
2462,1465174.881673643
3217,5180384.2615139615
2,11, 1,11, 0,23, 0.00,60.00,Wednesday
8,105416227.93539558
2462,3490295.2827287493
3217,4310335.038286523
2,11, 1,11, 0,24, 0.00,60.00,Wednesday
8,104772237.80083582
2462,4773182.827628633
3217,4019934.5285456376
2,12, 1,12, 0, 1, 0.00,60.00,Thursday
8,73067677.73884606
2462,50039613.08366572
3217,4286378.162904543
2,12, 1,12, 0, 2, 0.00,60.00,Thursday
8,70977908.50176348
2462,26939030.909076534
3217,3980872.247781153
2,12, 1,12, 0, 3, 0.00,60.00,Thursday
8,69712982.43549225
2462,26163838.581503
3217,3926940.664244135
2,12, 1,12, 0, 4, 0.00,60.00,Thursday
8,68785693.25351097
2462,25464117.386291716
3217,3314964.176880785
2,12, 1,12, 0, 5, 0.00,60.00,Thursday
8,67477761.2951621
2462,32700426.020817555
3217,3102131.49791797
2,12, 1,12, 0, 6, 0.00,60.00,Thursday
8,65546013.527942054
2462,25505936.43010063
3217,3067867.45494732
2,12, 1,12, 0, 7, 0.00,60.00,Thursday
8,65163829.189500056
2462,14299001.562699217
3217,3048454.1847815467
2,12, 1,12, 0, 8, 0.00,60.00,Thursday
8,62678565.70158748
2462,2281214.960616908
3217,3020602.9317393485
2,12, 1,12, 0, 9, 0.00,60.00,Thursday
8,63265368.14096756
2462,0.0
3217,2995660.6603514226
2,12, 1,12, 0,10, 0.00,60.00,Thursday
8,61895620.2861912
2462,0.0
3217,2965996.882622863
2,12, 1,12, 0,11, 0.00,60.00,Thursday
8,58423254.767453514
2462,0.0
3217,2942753.25108417
2,12, 1,12, 0,12, 0.00,60.00,Thursday
8,58294366.96966114
2462,0.0
3217,2915159.5482986514
2,12, 1,12, 0,13, 0.00,60.00,Thursday
8,58176333.162688784
2462,0.0
3217,2895727.1428081086
2,12, 1,12, 0,14, 0.00,60.00,Thursday
8,58069153.34653651
2462,0.0
3217,2873717.995216749
2,12, 1,12, 0,15, 0.00,60.00,Thursday
8,57997229.19399687
2462,0.0
3217,2839169.5496826605
2,12, 1,12, 0,16, 0.00,60.00,Thursday
8,57902250.214240916
2462,0.0
3217,2820983.6619976736
2,12, 1,12, 0,17, 0.00,60.00,Thursday
8,59035927.139311515
2462,0.0
3217,2815424.354237455
2,12, 1,12, 0,18, 0.00,60.00,Thursday
8,61533294.907639
2462,2050193.9465935952
3217,0.0
2,12, 1,12, 0,19, 0.00,60.00,Thursday
8,63272539.63793758
2462,9379917.669416916
3217,0.0
2,12, 1,12, 0,20, 0.00,60.00,Thursday
8,64386607.49119354
2462,18272220.036197454
3217,0.0
2,12, 1,12, 0,21, 0.00,60.00,Thursday
8,65316411.95611981
2462,24118805.359045528
3217,0.0
2,12, 1,12, 0,22, 0.00,60.00,Thursday
8,92461320.08869319
2462,7925997.549617948
3217,5443051.503701674
2,12, 1,12, 0,23, 0.00,60.00,Thursday
8,105464657.2051832
2462,12263791.534799477
3217,4310853.839249671
2,12, 1,12, 0,24, 0.00,60.00,Thursday
8,104829068.21996322
2462,16878732.696308356
3217,4020813.537614857
2,13, 1,13, 0, 1, 0.00,60.00,Friday
8,74030193.02744381
2462,77370786.5871372
3217,4106058.994081896
2,13, 1,13, 0, 2, 0.00,60.00,Friday
8,71106918.65604547
2462,28944078.296382353
3217,3985284.995338081
2,13, 1,13, 0, 3, 0.00,60.00,Friday
8,70076075.2788562
2462,29986010.773930818
3217,3927858.5349875954
2,13, 1,13, 0, 4, 0.00,60.00,Friday
8,69159455.54497845
2462,29532140.83258211
3217,3315048.7179193944
2,13, 1,13, 0, 5, 0.00,60.00,Friday
8,65362254.37944299
2462,14070729.41343827
3217,3102239.003338571
2,13, 1,13, 0, 6, 0.00,60.00,Friday
8,64206058.86555018
2462,13435843.849702554
3217,3068016.458311477
2,13, 1,13, 0, 7, 0.00,60.00,Friday
8,64088347.83072171
2462,7025720.393960073
3217,3049321.987816721
2,13, 1,13, 0, 8, 0.00,60.00,Friday
8,62131687.90013585
2462,0.0
3217,3022264.4136098432
2,13, 1,13, 0, 9, 0.00,60.00,Friday
8,63265353.98861724
2462,0.0