Program Version,EnergyPlus, Version 23.1.0-87ed9199d4, YMD=2023.06.03 16:12
1,5,Environment Title[],Latitude[deg],Longitude[deg],Time Zone[],Elevation[m]
2,8,Day of Simulation[],Month[],Day of Month[],DST Indicator[1=yes 0=no],Hour[],StartMinute[],EndMinute[],DayType
3,5,Cumulative Day of Simulation[],Month[],Day of Month[],DST Indicator[1=yes 0=no],DayType  ! When Daily Report Variables Requested
4,2,Cumulative Days of Simulation[],Month[]  ! When Monthly Report Variables Requested
5,1,Cumulative Days of Simulation[] ! When Run Period Report Variables Requested
6,1,Calendar Year of Simulation[] ! When Annual Report Variables Requested
8,1,Electricity:Facility [J] !TimeStep
2002,1,NaturalGas:Facility [J] !TimeStep
1328,1,DistrictHeating:Facility [J] !TimeStep
End of Data Dictionary
1,KODIAK ANN CLG .4% CONDNS DB=>MWB HVAC Sizing Pass 1,  57.75,-152.50,  -9.00,   5.00
2,1, 8,21, 0, 1, 0.00,10.00,SummerDesignDay
8,21734299.58017644
1328,0.0
2002,0.0
2,1, 8,21, 0, 1,10.00,20.00,SummerDesignDay
8,21734299.58017644
1328,0.0
2002,0.0
2,1, 8,21, 0, 1,20.00,30.00,SummerDesignDay
8,21734299.58017644
1328,0.0
2002,0.0
2,1, 8,21, 0, 1,30.00,40.00,SummerDesignDay
8,21734299.58017644
1328,0.0
2002,0.0
2,1, 8,21, 0, 1,40.00,50.00,SummerDesignDay
8,21772816.75060961
1328,0.0
2002,0.0
2,1, 8,21, 0, 1,50.00,60.00,SummerDesignDay
8,21887524.034440048
1328,0.0
2002,0.0
2,1, 8,21, 0, 2, 0.00,10.00,SummerDesignDay
8,21819134.961648293
1328,0.0
2002,0.0
2,1, 8,21, 0, 2,10.00,20.00,SummerDesignDay
8,21839144.46052665
1328,0.0
2002,0.0
2,1, 8,21, 0, 2,20.00,30.00,SummerDesignDay
8,21839793.644925255
1328,0.0
2002,0.0
2,1, 8,21, 0, 2,30.00,40.00,SummerDesignDay
8,21838484.969135642
1328,0.0
2002,1619513.9588702482
2,1, 8,21, 0, 2,40.00,50.00,SummerDesignDay
8,21836479.36263197
1328,0.0
2002,94788.46155717524
2,1, 8,21, 0, 2,50.00,60.00,SummerDesignDay
8,21834351.436176192
1328,0.0
2002,0.0
2,1, 8,21, 0, 3, 0.00,10.00,SummerDesignDay
8,21832876.44116818
1328,0.0
2002,0.0
2,1, 8,21, 0, 3,10.00,20.00,SummerDesignDay
8,21831161.867833756
1328,0.0
2002,0.0
2,1, 8,21, 0, 3,20.00,30.00,SummerDesignDay
8,21829199.22300287
1328,0.0
2002,0.0
2,1, 8,21, 0, 3,30.00,40.00,SummerDesignDay
8,21827308.495220736
1328,0.0
2002,0.0
2,1, 8,21, 0, 3,40.00,50.00,SummerDesignDay
8,21825418.126611628
1328,0.0
2002,0.0
2,1, 8,21, 0, 3,50.00,60.00,SummerDesignDay
8,21823463.22339248
1328,0.0
2002,0.0
2,1, 8,21, 0, 4, 0.00,10.00,SummerDesignDay
8,21821447.322774187
1328,0.0
2002,0.0
2,1, 8,21, 0, 4,10.00,20.00,SummerDesignDay
8,21819373.210653946
1328,0.0
2002,1524609.1610639996
2,1, 8,21, 0, 4,20.00,30.00,SummerDesignDay
8,21817243.917451322
1328,0.0
2002,189625.9682774446
2,1, 8,21, 0, 4,30.00,40.00,SummerDesignDay
8,21815062.565627683
1328,0.0
2002,0.0
2,1, 8,21, 0, 4,40.00,50.00,SummerDesignDay
8,21812832.194375884
1328,0.0
2002,0.0
2,1, 8,21, 0, 4,50.00,60.00,SummerDesignDay
8,21810555.015259508
1328,0.0
2002,0.0
2,1, 8,21, 0, 5, 0.00,10.00,SummerDesignDay
8,21809135.721373707
1328,0.0
2002,0.0
2,1, 8,21, 0, 5,10.00,20.00,SummerDesignDay
8,21807679.885437224
1328,0.0
2002,0.0
2,1, 8,21, 0, 5,20.00,30.00,SummerDesignDay
8,21806192.913100217
1328,0.0
2002,0.0
2,1, 8,21, 0, 5,30.00,40.00,SummerDesignDay
8,21804679.81912696
1328,0.0
2002,0.0
2,1, 8,21, 0, 5,40.00,50.00,SummerDesignDay
8,21803144.055558395
1328,0.0
2002,0.0
2,1, 8,21, 0, 5,50.00,60.00,SummerDesignDay
8,23056304.556592397
1328,0.0
2002,1429664.5400599623
2,1, 8,21, 0, 6, 0.00,10.00,SummerDesignDay
8,25169345.041216318
1328,0.0
2002,284512.5436880489
2,1, 8,21, 0, 6,10.00,20.00,SummerDesignDay
8,24130739.4666183
1328,0.0
2002,0.0
2,1, 8,21, 0, 6,20.00,30.00,SummerDesignDay
8,21872916.4901051
1328,0.0
2002,0.0
2,1, 8,21, 0, 6,30.00,40.00,SummerDesignDay
8,22511021.885440584
1328,0.0
2002,0.0
2,1, 8,21, 0, 6,40.00,50.00,SummerDesignDay
8,22689604.776575886
1328,0.0
2002,0.0
2,1, 8,21, 0, 6,50.00,60.00,SummerDesignDay
8,21616108.137333095
1328,0.0
2002,0.0
2,1, 8,21, 0, 7, 0.00,10.00,SummerDesignDay
8,25237112.802048925
1328,0.0
2002,1867275.3411314674
2,1, 8,21, 0, 7,10.00,20.00,SummerDesignDay
8,21786966.817959134
1328,0.0
2002,2532908.353834446
2,1, 8,21, 0, 7,20.00,30.00,SummerDesignDay
8,22851327.30721477
1328,0.0
2002,2532908.353834446
2,1, 8,21, 0, 7,30.00,40.00,SummerDesignDay
8,23234209.030431785
1328,0.0
2002,1809972.4508260726
2,1, 8,21, 0, 7,40.00,50.00,SummerDesignDay
8,23171461.627225365
1328,0.0
2002,460053.9184466238
2,1, 8,21, 0, 7,50.00,60.00,SummerDesignDay
8,23287842.556938678
1328,0.0
2002,2532908.353834446
2,1, 8,21, 0, 8, 0.00,10.00,SummerDesignDay
8,28741834.100482512
1328,0.0
2002,436128.1679242437
2,1, 8,21, 0, 8,10.00,20.00,SummerDesignDay
8,27805911.12037583
1328,0.0
2002,2040764.534456339
2,1, 8,21, 0, 8,20.00,30.00,SummerDesignDay
8,26927174.96621451
1328,0.0
2002,2180700.7720111357
2,1, 8,21, 0, 8,30.00,40.00,SummerDesignDay
8,25711442.91903396
1328,0.0
2002,309471.3741039146
2,1, 8,21, 0, 8,40.00,50.00,SummerDesignDay
8,26323269.224607743
1328,0.0
2002,2532908.353834446
2,1, 8,21, 0, 8,50.00,60.00,SummerDesignDay
8,26208437.639754646
1328,0.0
2002,1380711.8517935672
2,1, 8,21, 0, 9, 0.00,10.00,SummerDesignDay
8,26307431.215233393
1328,0.0
2002,1368437.503056037
2,1, 8,21, 0, 9,10.00,20.00,SummerDesignDay
8,26426189.455432165
1328,0.0
2002,2532908.353834446
2,1, 8,21, 0, 9,20.00,30.00,SummerDesignDay
8,26554844.608566325
1328,0.0
2002,2532908.353834446
2,1, 8,21, 0, 9,30.00,40.00,SummerDesignDay
8,26695650.422380514
1328,0.0
2002,519871.0071037444
2,1, 8,21, 0, 9,40.00,50.00,SummerDesignDay
8,26845589.400529344
1328,0.0
2002,2474083.773208248
2,1, 8,21, 0, 9,50.00,60.00,SummerDesignDay
8,27001469.341906574
1328,0.0
2002,2532908.353834446
2,1, 8,21, 0,10, 0.00,10.00,SummerDesignDay
8,27151931.64441082
1328,0.0
2002,2295758.092349869
2,1, 8,21, 0,10,10.00,20.00,SummerDesignDay
8,27304033.321644388
1328,0.0
2002,769422.962981163
2,1, 8,21, 0,10,20.00,30.00,SummerDesignDay
8,27458952.66071305
1328,0.0
2002,2532908.353834446
2,1, 8,21, 0,10,30.00,40.00,SummerDesignDay
8,27619030.125880443
1328,0.0
2002,2532908.353834446
2,1, 8,21, 0,10,40.00,50.00,SummerDesignDay
8,29038054.2218053
1328,0.0
2002,2190740.263541022
2,1, 8,21, 0,10,50.00,60.00,SummerDesignDay
8,27950105.636017285
1328,0.0
2002,875181.3383580969
2,1, 8,21, 0,11, 0.00,10.00,SummerDesignDay
8,28107535.643733826
1328,0.0
2002,2532908.353834446
2,1, 8,21, 0,11,10.00,20.00,SummerDesignDay
8,28263773.96672729
1328,0.0
2002,2532908.353834446
2,1, 8,21, 0,11,20.00,30.00,SummerDesignDay
8,28418411.28008357
1328,0.0
2002,2435959.535207386
2,1, 8,21, 0,11,30.00,40.00,SummerDesignDay
8,28562220.395175267
1328,0.0
2002,653294.0634220437
2,1, 8,21, 0,11,40.00,50.00,SummerDesignDay
8,28706058.615546864
1328,0.0
2002,2532908.353834446
2,1, 8,21, 0,11,50.00,60.00,SummerDesignDay
8,28845142.21880627
1328,0.0
2002,2532908.353834446
2,1, 8,21, 0,12, 0.00,10.00,SummerDesignDay
8,28955861.85347989
1328,0.0
2002,2532908.353834446
2,1, 8,21, 0,12,10.00,20.00,SummerDesignDay
8,29059604.335081253
1328,0.0
2002,2077936.280583021
2,1, 8,21, 0,12,20.00,30.00,SummerDesignDay
8,29156057.308424134
1328,0.0
2002,1177834.143400871
2,1, 8,21, 0,12,30.00,40.00,SummerDesignDay
8,29244594.140051976
1328,0.0
2002,2532908.353834446
2,1, 8,21, 0,12,40.00,50.00,SummerDesignDay
8,29324964.195974022
1328,0.0
2002,2532908.353834446
2,1, 8,21, 0,12,50.00,60.00,SummerDesignDay
8,29397138.482032586
1328,0.0
2002,2532908.353834446
2,1, 8,21, 0,13, 0.00,10.00,SummerDesignDay
8,29451590.0561088
1328,0.0
2002,2532908.353834446
2,1, 8,21, 0,13,10.00,20.00,SummerDesignDay
8,29498747.79834693
1328,0.0
2002,2532908.353834446
2,1, 8,21, 0,13,20.00,30.00,SummerDesignDay
8,29540327.070290033
1328,0.0
2002,2532908.353834446
2,1, 8,21, 0,13,30.00,40.00,SummerDesignDay
8,29578252.022085074
1328,0.0
2002,2532908.353834446
2,1, 8,21, 0,13,40.00,50.00,SummerDesignDay
8,29614336.75718225
1328,0.0
2002,2532908.353834446
2,1, 8,21, 0,13,50.00,60.00,SummerDesignDay
8,29651220.93609572
1328,0.0
2002,2532908.353834446
2,1, 8,21, 0,14, 0.00,10.00,SummerDesignDay
8,29677778.307566278
1328,0.0
2002,2532908.353834446
2,1, 8,21, 0,14,10.00,20.00,SummerDesignDay
8,29713757.598615296
1328,0.0
2002,2532908.353834446
2,1, 8,21, 0,14,20.00,30.00,SummerDesignDay
8,29760420.54504578
1328,0.0
2002,2532908.353834446
2,1, 8,21, 0,14,30.00,40.00,SummerDesignDay
8,29816289.998445854
1328,0.0
2002,2532908.353834446
2,1, 8,21, 0,14,40.00,50.00,SummerDesignDay
8,29879516.120336946
1328,0.0
2002,843515.3944338973
2,1, 8,21, 0,14,50.00,60.00,SummerDesignDay
8,29948371.583743867
1328,0.0
2002,2532908.353834446
2,1, 8,21, 0,15, 0.00,10.00,SummerDesignDay
8,29996145.91958336
1328,0.0
2002,2532908.353834446
2,1, 8,21, 0,15,10.00,20.00,SummerDesignDay
8,30044060.43189922
1328,0.0
2002,2532908.353834446
2,1, 8,21, 0,15,20.00,30.00,SummerDesignDay
8,30090394.073847566
1328,0.0
2002,1076813.164841168
2,1, 8,21, 0,15,30.00,40.00,SummerDesignDay
8,31388384.832442455
1328,0.0
2002,1891854.976280812
2,1, 8,21, 0,15,40.00,50.00,SummerDesignDay
8,30172861.330240298
1328,0.0
2002,2532908.353834446
2,1, 8,21, 0,15,50.00,60.00,SummerDesignDay
8,30206962.327274393
1328,0.0
2002,2325000.9122727234
2,1, 8,21, 0,16, 0.00,10.00,SummerDesignDay
8,30205615.268937785
1328,0.0
2002,621265.4180532394
2,1, 8,21, 0,16,10.00,20.00,SummerDesignDay
8,30197608.240310688
1328,0.0
2002,2532908.353834446
2,1, 8,21, 0,16,20.00,30.00,SummerDesignDay
8,30182247.56112278
1328,0.0
2002,2532908.353834446
2,1, 8,21, 0,16,30.00,40.00,SummerDesignDay
8,30159214.763550565
1328,0.0
2002,798720.1166347713
2,1, 8,21, 0,16,40.00,50.00,SummerDesignDay
8,30135387.712412678
1328,0.0
2002,2142328.808325737
2,1, 8,21, 0,16,50.00,60.00,SummerDesignDay
8,30098382.660435125
1328,0.0
2002,2532908.353834446
2,1, 8,21, 0,17, 0.00,10.00,SummerDesignDay
8,30042354.76511382
1328,0.0
2002,2532908.353834446
2,1, 8,21, 0,17,10.00,20.00,SummerDesignDay
8,29977527.810672943
1328,0.0
2002,664857.666137184
2,1, 8,21, 0,17,20.00,30.00,SummerDesignDay
8,29903272.11510769
1328,0.0
2002,2532908.353834446
2,1, 8,21, 0,17,30.00,40.00,SummerDesignDay
8,29818953.58478516
1328,0.0
2002,2532908.353834446
2,1, 8,21, 0,17,40.00,50.00,SummerDesignDay
8,29724776.080699973
1328,0.0
2002,2532908.353834446
2,1, 8,21, 0,17,50.00,60.00,SummerDesignDay
8,29621000.04013703
1328,0.0
2002,2532908.353834446
2,1, 8,21, 0,18, 0.00,10.00,SummerDesignDay
8,29503198.309911303
1328,0.0
2002,451426.1541123587
2,1, 8,21, 0,18,10.00,20.00,SummerDesignDay
8,29383053.39844293
1328,0.0
2002,2334891.9683145313
2,1, 8,21, 0,18,20.00,30.00,SummerDesignDay
8,29260943.96111635
1328,0.0
2002,2532908.353834446
2,1, 8,21, 0,18,30.00,40.00,SummerDesignDay
8,29136195.611910004
1328,0.0
2002,223965.99311058802
2,1, 8,21, 0,18,40.00,50.00,SummerDesignDay
8,29009227.544167697
1328,0.0
2002,2510885.16647571
2,1, 8,21, 0,18,50.00,60.00,SummerDesignDay
8,28880538.051885255
1328,0.0
2002,2532908.353834446
2,1, 8,21, 0,19, 0.00,10.00,SummerDesignDay
8,28727131.268261485
1328,0.0
2002,56131.30183290517
2,1, 8,21, 0,19,10.00,20.00,SummerDesignDay
8,28579127.123139385
1328,0.0
2002,2527526.8543898077
2,1, 8,21, 0,19,20.00,30.00,SummerDesignDay
8,28434453.527946886
1328,0.0
2002,1911742.0177590086
2,1, 8,21, 0,19,30.00,40.00,SummerDesignDay
8,28289010.15614246
1328,0.0
2002,652908.7674638007
2,1, 8,21, 0,19,40.00,50.00,SummerDesignDay
8,28156234.03522897
1328,0.0
2002,2532908.353834446
2,1, 8,21, 0,19,50.00,60.00,SummerDesignDay
8,28027334.391231686
1328,0.0
2002,1255376.9176005365
2,1, 8,21, 0,20, 0.00,10.00,SummerDesignDay
8,27887497.770687547
1328,0.0
2002,1201496.7675377117
2,1, 8,21, 0,20,10.00,20.00,SummerDesignDay
8,27765373.46283369
1328,0.0
2002,2532908.353834446
2,1, 8,21, 0,20,20.00,30.00,SummerDesignDay
8,27656706.487526804
1328,0.0
2002,118266.70847577718
2,1, 8,21, 0,20,30.00,40.00,SummerDesignDay
8,28792309.43331124
1328,0.0
2002,2204239.491833433
2,1, 8,21, 0,20,40.00,50.00,SummerDesignDay
8,27404674.22477261
1328,0.0
2002,1633221.953232733
2,1, 8,21, 0,20,50.00,60.00,SummerDesignDay
8,27250287.556052707
1328,0.0
2002,689136.0728722649
2,1, 8,21, 0,21, 0.00,10.00,SummerDesignDay
8,27241067.751093447
1328,0.0
2002,2532908.353834446
2,1, 8,21, 0,21,10.00,20.00,SummerDesignDay
8,27243219.282926876
1328,0.0
2002,755790.4005422773
2,1, 8,21, 0,21,20.00,30.00,SummerDesignDay
8,27218507.441560313
1328,0.0
2002,1653059.9265839364
2,1, 8,21, 0,21,30.00,40.00,SummerDesignDay
8,27652463.75198767
1328,0.0
2002,2367030.3761399123
2,1, 8,21, 0,21,40.00,50.00,SummerDesignDay
8,27450370.281799335
1328,0.0
2002,41963.355035669265
2,1, 8,21, 0,21,50.00,60.00,SummerDesignDay
8,27277230.868531704
1328,0.0
2002,2532908.353834446
2,1, 8,21, 0,22, 0.00,10.00,SummerDesignDay
8,27126044.622741755
1328,0.0
2002,1204771.6241568911
2,1, 8,21, 0,22,10.00,20.00,SummerDesignDay
8,26992559.46095164
1328,0.0
2002,788598.9249815599
2,1, 8,21, 0,22,20.00,30.00,SummerDesignDay
8,26873619.73618192
1328,0.0
2002,2524296.908857436
2,1, 8,21, 0,22,30.00,40.00,SummerDesignDay
8,26766362.93044195
1328,0.0
2002,0.0
2,1, 8,21, 0,22,40.00,50.00,SummerDesignDay
8,26654887.645384684
1328,0.0
2002,1980862.2724045422
2,1, 8,21, 0,22,50.00,60.00,SummerDesignDay
8,26591289.157014288
1328,0.0
2002,1331863.1539378024
2,1, 8,21, 0,23, 0.00,10.00,SummerDesignDay
8,21921266.470286697
1328,0.0
2002,541354.1552457797
2,1, 8,21, 0,23,10.00,20.00,SummerDesignDay
8,21921266.470286697
1328,0.0
2002,2532908.353834446
2,1, 8,21, 0,23,20.00,30.00,SummerDesignDay
8,21921266.470286697
1328,0.0
2002,53447.3707096986
2,1, 8,21, 0,23,30.00,40.00,SummerDesignDay
8,21921266.470286697
1328,0.0
2002,1742764.9072676455
2,1, 8,21, 0,23,40.00,50.00,SummerDesignDay
8,21921266.470286697
1328,0.0
2002,1387009.0859683761
2,1, 8,21, 0,23,50.00,60.00,SummerDesignDay
8,21921266.470286697
1328,0.0
2002,405625.71964526665
2,1, 8,21, 0,24, 0.00,10.00,SummerDesignDay
8,21921266.470286697
1328,0.0
2002,2532908.353834446
2,1, 8,21, 0,24,10.00,20.00,SummerDesignDay
8,21921266.470286697
1328,0.0
2002,191783.82035730232
2,1, 8,21, 0,24,20.00,30.00,SummerDesignDay
8,21921266.470286697
1328,0.0
2002,1601789.788712702
2,1, 8,21, 0,24,30.00,40.00,SummerDesignDay
8,21921266.470286697
1328,0.0
2002,1527745.6087082606
2,1, 8,21, 0,24,40.00,50.00,SummerDesignDay
8,21921266.470286697
1328,0.0
2002,265244.50838313997
2,1, 8,21, 0,24,50.00,60.00,SummerDesignDay
8,21921266.470286697
1328,0.0
2002,2532908.353834446
1,KODIAK ANN CLG .4% CONDNS WB=>MDB HVAC Sizing Pass 1,  57.75,-152.50,  -9.00,   5.00
2,1, 8,21, 0, 1, 0.00,10.00,SummerDesignDay
8,21734299.58017644
1328,0.0
2002,0.0
2,1, 8,21, 0, 1,10.00,20.00,SummerDesignDay
8,21734299.58017644
1328,0.0
2002,0.0
2,1, 8,21, 0, 1,20.00,30.00,SummerDesignDay
8,21734299.58017644
1328,0.0
2002,0.0
2,1, 8,21, 0, 1,30.00,40.00,SummerDesignDay
8,21734299.58017644
1328,0.0
2002,0.0
2,1, 8,21, 0, 1,40.00,50.00,SummerDesignDay
8,21734299.58017644
1328,0.0
2002,0.0
2,1, 8,21, 0, 1,50.00,60.00,SummerDesignDay
8,21734299.58017644
1328,0.0
2002,0.0
2,1, 8,21, 0, 2, 0.00,10.00,SummerDesignDay
8,21734299.58017644
1328,0.0
2002,0.0
2,1, 8,21, 0, 2,10.00,20.00,SummerDesignDay
8,21734299.58017644
1328,0.0
2002,0.0
2,1, 8,21, 0, 2,20.00,30.00,SummerDesignDay
8,21734299.58017644
1328,0.0
2002,0.0
2,1, 8,21, 0, 2,30.00,40.00,SummerDesignDay
8,21734299.58017644
1328,0.0
2002,1619513.9588702482
2,1, 8,21, 0, 2,40.00,50.00,SummerDesignDay
8,21734299.58017644
1328,0.0
2002,94788.46155717524
2,1, 8,21, 0, 2,50.00,60.00,SummerDesignDay
8,21734299.58017644
1328,0.0
2002,0.0
2,1, 8,21, 0, 3, 0.00,10.00,SummerDesignDay
8,21734299.58017644
1328,0.0
2002,0.0
2,1, 8,21, 0, 3,10.00,20.00,SummerDesignDay
8,21734299.58017644
1328,0.0
2002,0.0
2,1, 8,21, 0, 3,20.00,30.00,SummerDesignDay
8,21734299.58017644
1328,0.0
2002,0.0
2,1, 8,21, 0, 3,30.00,40.00,SummerDesignDay
8,21734299.58017644
1328,0.0
2002,0.0
2,1, 8,21, 0, 3,40.00,50.00,SummerDesignDay
8,21734299.58017644
1328,0.0
2002,0.0
2,1, 8,21, 0, 3,50.00,60.00,SummerDesignDay
8,21734299.58017644
1328,0.0
2002,0.0
2,1, 8,21, 0, 4, 0.00,10.00,SummerDesignDay
8,21734299.58017644
1328,0.0
2002,0.0
2,1, 8,21, 0, 4,10.00,20.00,SummerDesignDay
8,21734299.58017644
1328,0.0
2002,1524609.1610639996
2,1, 8,21, 0, 4,20.00,30.00,SummerDesignDay
8,21734299.58017644
1328,0.0
2002,189625.9682774446
2,1, 8,21, 0, 4,30.00,40.00,SummerDesignDay
8,21734299.58017644
1328,0.0
2002,0.0
2,1, 8,21, 0, 4,40.00,50.00,SummerDesignDay
8,21734299.58017644
1328,0.0
2002,0.0
2,1, 8,21, 0, 4,50.00,60.00,SummerDesignDay
8,21734299.58017644
1328,0.0
2002,0.0
2,1, 8,21, 0, 5, 0.00,10.00,SummerDesignDay
8,21734299.58017644
1328,0.0
2002,0.0
2,1, 8,21, 0, 5,10.00,20.00,SummerDesignDay
8,21734299.58017644
1328,0.0
2002,0.0
2,1, 8,21, 0, 5,20.00,30.00,SummerDesignDay
8,21734299.58017644
1328,0.0
2002,0.0
2,1, 8,21, 0, 5,30.00,40.00,SummerDesignDay
8,21734299.58017644
1328,0.0
2002,0.0
2,1, 8,21, 0, 5,40.00,50.00,SummerDesignDay
8,21734299.58017644
1328,0.0
2002,0.0
2,1, 8,21, 0, 5,50.00,60.00,SummerDesignDay
8,22989016.00684185
1328,0.0
2002,1429664.5400599623
2,1, 8,21, 0, 6, 0.00,10.00,SummerDesignDay
8,24765633.9266312
1328,0.0
2002,284512.5436880489
2,1, 8,21, 0, 6,10.00,20.00,SummerDesignDay
8,21734299.58017644
1328,0.0
2002,0.0
2,1, 8,21, 0, 6,20.00,30.00,SummerDesignDay
8,21734299.58017644
1328,0.0
2002,0.0
2,1, 8,21, 0, 6,30.00,40.00,SummerDesignDay
8,21786214.211955078
1328,0.0
2002,0.0
2,1, 8,21, 0, 6,40.00,50.00,SummerDesignDay
8,22640255.39274717
1328,0.0
2002,0.0
2,1, 8,21, 0, 6,50.00,60.00,SummerDesignDay
8,21283693.283787966
1328,0.0
2002,0.0
2,1, 8,21, 0, 7, 0.00,10.00,SummerDesignDay
8,24587533.712020148
1328,0.0
2002,1867276.9635748425
2,1, 8,21, 0, 7,10.00,20.00,SummerDesignDay
8,21750917.90271743
1328,0.0
2002,2532908.353834446
2,1, 8,21, 0, 7,20.00,30.00,SummerDesignDay
8,22423375.68706408
1328,0.0
2002,2532908.353834446
2,1, 8,21, 0, 7,30.00,40.00,SummerDesignDay
8,22804221.13802903
1328,0.0
2002,1809474.8183714533
2,1, 8,21, 0, 7,40.00,50.00,SummerDesignDay
8,22759237.99978802
1328,0.0
2002,460540.84343759774
2,1, 8,21, 0, 7,50.00,60.00,SummerDesignDay
8,22870038.32414546
1328,0.0
2002,2532908.353834446
2,1, 8,21, 0, 8, 0.00,10.00,SummerDesignDay
8,28176107.00127037
1328,0.0
2002,435538.0450378382
2,1, 8,21, 0, 8,10.00,20.00,SummerDesignDay
8,27234150.50631468
1328,0.0
2002,2041324.689186037
2,1, 8,21, 0, 8,20.00,30.00,SummerDesignDay
8,26752044.982050408
1328,0.0
2002,2180140.9455265244
2,1, 8,21, 0, 8,30.00,40.00,SummerDesignDay
8,25069735.154374473
1328,0.0
2002,310031.13951586786
2,1, 8,21, 0, 8,40.00,50.00,SummerDesignDay
8,25929341.949299034
1328,0.0
2002,2532908.353834446
2,1, 8,21, 0, 8,50.00,60.00,SummerDesignDay
8,25779869.19197071
1328,0.0
2002,1380152.744118136
2,1, 8,21, 0, 9, 0.00,10.00,SummerDesignDay
8,25881157.42130549
1328,0.0
2002,1368896.7449753857
2,1, 8,21, 0, 9,10.00,20.00,SummerDesignDay
8,26005083.73883747
1328,0.0
2002,2532908.353834446
2,1, 8,21, 0, 9,20.00,30.00,SummerDesignDay
8,26136742.65525263
1328,0.0
2002,2532908.353834446
2,1, 8,21, 0, 9,30.00,40.00,SummerDesignDay
8,26273267.305750195
1328,0.0
2002,519381.67353178206
2,1, 8,21, 0, 9,40.00,50.00,SummerDesignDay
8,26428126.797715347
1328,0.0
2002,2474573.5313641
2,1, 8,21, 0, 9,50.00,60.00,SummerDesignDay
8,26586369.218743425
1328,0.0
2002,2532908.353834446
2,1, 8,21, 0,10, 0.00,10.00,SummerDesignDay
8,26721273.110589255
1328,0.0
2002,2295203.3852085583
2,1, 8,21, 0,10,10.00,20.00,SummerDesignDay
8,26905293.878162064
1328,0.0
2002,769975.2290754198
2,1, 8,21, 0,10,20.00,30.00,SummerDesignDay
8,27040523.090037946
1328,0.0
2002,2532908.353834446
2,1, 8,21, 0,10,30.00,40.00,SummerDesignDay
8,27206658.543649692
1328,0.0
2002,2532908.353834446
2,1, 8,21, 0,10,40.00,50.00,SummerDesignDay
8,28624627.27705756
1328,0.0
2002,2190187.0666513266
2,1, 8,21, 0,10,50.00,60.00,SummerDesignDay
8,27534239.07833062
1328,0.0
2002,875734.2464628589
2,1, 8,21, 0,11, 0.00,10.00,SummerDesignDay
8,27691108.07429706
1328,0.0
2002,2532908.353834446
2,1, 8,21, 0,11,10.00,20.00,SummerDesignDay
8,27845029.25443206
1328,0.0
2002,2532908.353834446
2,1, 8,21, 0,11,20.00,30.00,SummerDesignDay
8,27997409.475679357
1328,0.0
2002,2435379.2905280753
2,1, 8,21, 0,11,30.00,40.00,SummerDesignDay
8,28139373.975789655
1328,0.0
2002,653873.7696100791
2,1, 8,21, 0,11,40.00,50.00,SummerDesignDay
8,28280316.852245435
1328,0.0
2002,2532908.353834446
2,1, 8,21, 0,11,50.00,60.00,SummerDesignDay
8,28416298.23330956
1328,0.0
2002,2532908.353834446
2,1, 8,21, 0,12, 0.00,10.00,SummerDesignDay
8,28523801.871890664
1328,0.0
2002,2532908.353834446
2,1, 8,21, 0,12,10.00,20.00,SummerDesignDay
8,28624137.229278214
1328,0.0
2002,2076933.910151126
2,1, 8,21, 0,12,20.00,30.00,SummerDesignDay
8,28716732.731414698
1328,0.0
2002,1178836.7384942223
2,1, 8,21, 0,12,30.00,40.00,SummerDesignDay
8,28801127.871944603
1328,0.0
2002,2532908.353834446
2,1, 8,21, 0,12,40.00,50.00,SummerDesignDay
8,28877188.144543927
1328,0.0
2002,2532908.353834446
2,1, 8,21, 0,12,50.00,60.00,SummerDesignDay
8,28944955.991847984
1328,0.0
2002,2532908.353834446
2,1, 8,21, 0,13, 0.00,10.00,SummerDesignDay
8,28994983.132922754
1328,0.0
2002,2532908.353834446
2,1, 8,21, 0,13,10.00,20.00,SummerDesignDay
8,29037827.98818302
1328,0.0
2002,2532908.353834446
2,1, 8,21, 0,13,20.00,30.00,SummerDesignDay
8,29075411.548586834
1328,0.0
2002,2532908.353834446
2,1, 8,21, 0,13,30.00,40.00,SummerDesignDay
8,29109461.50545139
1328,0.0
2002,2532908.353834446
2,1, 8,21, 0,13,40.00,50.00,SummerDesignDay
8,29141864.322836343
1328,0.0
2002,2532908.353834446
2,1, 8,21, 0,13,50.00,60.00,SummerDesignDay
8,29175347.791443814
1328,0.0
2002,2532908.353834446
2,1, 8,21, 0,14, 0.00,10.00,SummerDesignDay
8,29199107.808278207
1328,0.0
2002,2532908.353834446
2,1, 8,21, 0,14,10.00,20.00,SummerDesignDay
8,29231808.755138554
1328,0.0
2002,2532908.353834446
2,1, 8,21, 0,14,20.00,30.00,SummerDesignDay
8,29274899.339152552
1328,0.0
2002,2532908.353834446
2,1, 8,21, 0,14,30.00,40.00,SummerDesignDay
8,29327817.369812746
1328,0.0
2002,2532908.353834446
2,1, 8,21, 0,14,40.00,50.00,SummerDesignDay
8,29388691.2482249
1328,0.0
2002,843516.2556789833
2,1, 8,21, 0,14,50.00,60.00,SummerDesignDay
8,29455467.37488512
1328,0.0
2002,2532908.353834446
2,1, 8,21, 0,15, 0.00,10.00,SummerDesignDay
8,29502286.391002193
1328,0.0
2002,2532908.353834446
2,1, 8,21, 0,15,10.00,20.00,SummerDesignDay
8,29548722.925839227
1328,0.0
2002,2532908.353834446
2,1, 8,21, 0,15,20.00,30.00,SummerDesignDay
8,29594982.864575565
1328,0.0
2002,1076325.135845647
2,1, 8,21, 0,15,30.00,40.00,SummerDesignDay
8,30892255.934883595
1328,0.0
2002,1892345.6716804558
2,1, 8,21, 0,15,40.00,50.00,SummerDesignDay
8,29676333.743903223
1328,0.0
2002,2532908.353834446
2,1, 8,21, 0,15,50.00,60.00,SummerDesignDay
8,29710160.305089425
1328,0.0
2002,2324515.1791373626
2,1, 8,21, 0,16, 0.00,10.00,SummerDesignDay
8,29709375.01926823
1328,0.0
2002,621755.9832727861
2,1, 8,21, 0,16,10.00,20.00,SummerDesignDay
8,29701876.89144559
1328,0.0
2002,2532908.353834446
2,1, 8,21, 0,16,20.00,30.00,SummerDesignDay
8,29687047.30560631
1328,0.0
2002,2532908.353834446
2,1, 8,21, 0,16,30.00,40.00,SummerDesignDay
8,29664323.748510327
1328,0.0
2002,798231.7147238789
2,1, 8,21, 0,16,40.00,50.00,SummerDesignDay
8,29640641.81262946
1328,0.0
2002,2142817.68889676
2,1, 8,21, 0,16,50.00,60.00,SummerDesignDay
8,29603784.799930222
1328,0.0
2002,2532908.353834446
2,1, 8,21, 0,17, 0.00,10.00,SummerDesignDay
8,29548100.817976527
1328,0.0
2002,2532908.353834446
2,1, 8,21, 0,17,10.00,20.00,SummerDesignDay
8,29483483.109817542
1328,0.0
2002,664857.8697480441
2,1, 8,21, 0,17,20.00,30.00,SummerDesignDay
8,29409008.126416124
1328,0.0
2002,2532908.353834446
2,1, 8,21, 0,17,30.00,40.00,SummerDesignDay
8,29324767.250413954
1328,0.0
2002,2532908.353834446
2,1, 8,21, 0,17,40.00,50.00,SummerDesignDay
8,29230825.127112534
1328,0.0
2002,2532908.353834446
2,1, 8,21, 0,17,50.00,60.00,SummerDesignDay
8,29127376.578966293
1328,0.0
2002,2532908.353834446
2,1, 8,21, 0,18, 0.00,10.00,SummerDesignDay
8,29009894.954836804
1328,0.0
2002,451040.55113923264
2,1, 8,21, 0,18,10.00,20.00,SummerDesignDay
8,28890724.283206712
1328,0.0
2002,2335286.1555071613
2,1, 8,21, 0,18,20.00,30.00,SummerDesignDay
8,28769824.87063747
1328,0.0
2002,2532908.353834446
2,1, 8,21, 0,18,30.00,40.00,SummerDesignDay
8,28646541.563559223
1328,0.0
2002,223565.21817552755
2,1, 8,21, 0,18,40.00,50.00,SummerDesignDay
8,28521674.072141647
1328,0.0
2002,2511285.567358713
2,1, 8,21, 0,18,50.00,60.00,SummerDesignDay
8,28394571.243718415
1328,0.0
2002,2532908.353834446
2,1, 8,21, 0,19, 0.00,10.00,SummerDesignDay
8,28244556.470275566
1328,0.0
2002,55781.914501995634
2,1, 8,21, 0,19,10.00,20.00,SummerDesignDay
8,28098498.676545564
1328,0.0
2002,2527879.030694792
2,1, 8,21, 0,19,20.00,30.00,SummerDesignDay
8,27952614.067921985
1328,0.0
2002,1911389.6890679677
2,1, 8,21, 0,19,30.00,40.00,SummerDesignDay
8,27807464.885768518
1328,0.0
2002,653260.6861999551
2,1, 8,21, 0,19,40.00,50.00,SummerDesignDay
8,27675543.545862272
1328,0.0
2002,2532908.353834446
2,1, 8,21, 0,19,50.00,60.00,SummerDesignDay
8,27549354.923681963
1328,0.0
2002,1255024.3945730475
2,1, 8,21, 0,20, 0.00,10.00,SummerDesignDay
8,27412902.045285035
1328,0.0
2002,1201879.7984299622
2,1, 8,21, 0,20,10.00,20.00,SummerDesignDay
8,27293950.331031274
1328,0.0
2002,2532908.353834446
2,1, 8,21, 0,20,20.00,30.00,SummerDesignDay
8,27186033.731949225
1328,0.0
2002,117888.44903052946
2,1, 8,21, 0,20,30.00,40.00,SummerDesignDay
8,28324599.919867743
1328,0.0
2002,2204617.959771844
2,1, 8,21, 0,20,40.00,50.00,SummerDesignDay
8,26939506.118369184
1328,0.0
2002,1632844.0567809714
2,1, 8,21, 0,20,50.00,60.00,SummerDesignDay
8,26786709.86317559
1328,0.0
2002,689513.9504480421
2,1, 8,21, 0,21, 0.00,10.00,SummerDesignDay
8,26776970.87204452
1328,0.0
2002,2532908.353834446
2,1, 8,21, 0,21,10.00,20.00,SummerDesignDay
8,26780744.350189924
1328,0.0
2002,755394.9994550033
2,1, 8,21, 0,21,20.00,30.00,SummerDesignDay
8,26756784.04764973
1328,0.0
2002,1653455.499566902
2,1, 8,21, 0,21,30.00,40.00,SummerDesignDay
8,27188349.934190862
1328,0.0
2002,2366634.373739707
2,1, 8,21, 0,21,40.00,50.00,SummerDesignDay
8,26974011.424952995
1328,0.0
2002,42358.841841608926
2,1, 8,21, 0,21,50.00,60.00,SummerDesignDay
8,26827359.068780497
1328,0.0
2002,2532908.353834446
2,1, 8,21, 0,22, 0.00,10.00,SummerDesignDay
8,26660157.175637685
1328,0.0
2002,1204440.9408184695
2,1, 8,21, 0,22,10.00,20.00,SummerDesignDay
8,26532754.684864618
1328,0.0
2002,788935.2148131634
2,1, 8,21, 0,22,20.00,30.00,SummerDesignDay
8,26414334.97526964
1328,0.0
2002,2523959.745338185
2,1, 8,21, 0,22,30.00,40.00,SummerDesignDay
8,26309194.035741385
1328,0.0
2002,0.0
2,1, 8,21, 0,22,40.00,50.00,SummerDesignDay
8,26214646.982372724
1328,0.0
2002,1981198.5918211972
2,1, 8,21, 0,22,50.00,60.00,SummerDesignDay
8,26114265.322707523
1328,0.0
2002,1331526.9593496548
2,1, 8,21, 0,23, 0.00,10.00,SummerDesignDay
8,21921266.470286697
1328,0.0
2002,541710.1679437058
2,1, 8,21, 0,23,10.00,20.00,SummerDesignDay
8,21921266.470286697
1328,0.0
2002,2532908.353834446
2,1, 8,21, 0,23,20.00,30.00,SummerDesignDay
8,21921266.470286697
1328,0.0
2002,53091.552907067315
2,1, 8,21, 0,23,30.00,40.00,SummerDesignDay
8,21921266.470286697
1328,0.0
2002,1743120.593900735
2,1, 8,21, 0,23,40.00,50.00,SummerDesignDay
8,21921266.470286697
1328,0.0
2002,1386652.9767070024
2,1, 8,21, 0,23,50.00,60.00,SummerDesignDay
8,21921266.470286697
1328,0.0
2002,405981.92870777095
2,1, 8,21, 0,24, 0.00,10.00,SummerDesignDay
8,21921266.470286697
1328,0.0
2002,2532908.353834446
2,1, 8,21, 0,24,10.00,20.00,SummerDesignDay
8,21921266.470286697
1328,0.0
2002,191427.70711773116
2,1, 8,21, 0,24,20.00,30.00,SummerDesignDay
8,21921266.470286697
1328,0.0
2002,1602146.133070161
2,1, 8,21, 0,24,30.00,40.00,SummerDesignDay
8,21921266.470286697
1328,0.0
2002,1527389.3604589365
2,1, 8,21, 0,24,40.00,50.00,SummerDesignDay
8,21921266.470286697
1328,0.0
2002,265600.96049562417
2,1, 8,21, 0,24,50.00,60.00,SummerDesignDay
8,21921266.470286697
1328,0.0
2002,2532908.353834446
1,KODIAK ANN HTG 99.6% CONDNS DB HVAC Sizing Pass 1,  57.75,-152.50,  -9.00,   5.00
2,1, 1,21, 0, 1, 0.00,10.00,WinterDesignDay
8,5313906.415261667
1328,28989809.629175592
2002,0.0
2,1, 1,21, 0, 1,10.00,20.00,WinterDesignDay
8,5312007.974751071
1328,27894266.540690742
2002,0.0
2,1, 1,21, 0, 1,20.00,30.00,WinterDesignDay
8,5314220.927677466
1328,29468909.18549729
2002,0.0
2,1, 1,21, 0, 1,30.00,40.00,WinterDesignDay
8,5315143.862505945
1328,30108792.03156491
2002,0.0
2,1, 1,21, 0, 1,40.00,50.00,WinterDesignDay
8,5315934.742534859
1328,30611609.466071818
2002,0.0
2,1, 1,21, 0, 1,50.00,60.00,WinterDesignDay
8,5316624.963642437
1328,31019722.324247032
2002,0.0
2,1, 1,21, 0, 2, 0.00,10.00,WinterDesignDay
8,5317287.314012146
1328,31396470.70118155
2002,0.0
2,1, 1,21, 0, 2,10.00,20.00,WinterDesignDay
8,5317882.750752735
1328,31723770.791592043
2002,0.0
2,1, 1,21, 0, 2,20.00,30.00,WinterDesignDay
8,5318422.24845599
1328,32014113.12686513
2002,0.0
2,1, 1,21, 0, 2,30.00,40.00,WinterDesignDay
8,5318912.379808796
1328,32274595.999219436
2002,1619513.9588702482
2,1, 1,21, 0, 2,40.00,50.00,WinterDesignDay
8,5319354.241462938
1328,32507389.551880702
2002,94788.46155717524
2,1, 1,21, 0, 2,50.00,60.00,WinterDesignDay
8,5319757.636978632
1328,32719629.916462075
2002,0.0
2,1, 1,21, 0, 3, 0.00,10.00,WinterDesignDay
8,5320128.8675294975
1328,32915407.16908075
2002,0.0
2,1, 1,21, 0, 3,10.00,20.00,WinterDesignDay
8,5320472.0146540385
1328,33097064.554654498
2002,0.0
2,1, 1,21, 0, 3,20.00,30.00,WinterDesignDay
8,5320790.941574925
1328,33266717.00481415
2002,0.0
2,1, 1,21, 0, 3,30.00,40.00,WinterDesignDay
8,5321089.077987277
1328,33426163.446666256
2002,0.0
2,1, 1,21, 0, 3,40.00,50.00,WinterDesignDay
8,5321369.413394996
1328,33576920.60932597
2002,0.0
2,1, 1,21, 0, 3,50.00,60.00,WinterDesignDay
8,5321634.526365638
1328,33720264.03704142
2002,0.0
2,1, 1,21, 0, 4, 0.00,10.00,WinterDesignDay
8,5321886.62529183
1328,33857265.490051165
2002,0.0
2,1, 1,21, 0, 4,10.00,20.00,WinterDesignDay
8,5322127.591882781