Program Version,EnergyPlus, Version 23.1.0-87ed9199d4, YMD=2023.06.11 18:58
1,5,Environment Title[],Latitude[deg],Longitude[deg],Time Zone[],Elevation[m]
2,8,Day of Simulation[],Month[],Day of Month[],DST Indicator[1=yes 0=no],Hour[],StartMinute[],EndMinute[],DayType
3,5,Cumulative Day of Simulation[],Month[],Day of Month[],DST Indicator[1=yes 0=no],DayType  ! When Daily Report Variables Requested
4,2,Cumulative Days of Simulation[],Month[]  ! When Monthly Report Variables Requested
5,1,Cumulative Days of Simulation[] ! When Run Period Report Variables Requested
6,1,Calendar Year of Simulation[] ! When Annual Report Variables Requested
8,1,Electricity:Facility [J] !TimeStep
2053,1,NaturalGas:Facility [J] !TimeStep
1328,1,DistrictHeating:Facility [J] !TimeStep
End of Data Dictionary
1,RUN PERIOD 1,  57.75,-152.50,  -9.00,   5.00
2,1, 1, 1, 0, 1, 0.00,60.00,Sunday
8,27697282.09396405
1328,87939949.55141203
2053,0.0
2,1, 1, 1, 0, 2, 0.00,60.00,Sunday
8,27873185.548296116
1328,91339607.64409648
2053,0.0
2,1, 1, 1, 0, 3, 0.00,60.00,Sunday
8,27781088.777678248
1328,89180122.08185287
2053,0.0
2,1, 1, 1, 0, 4, 0.00,60.00,Sunday
8,27249901.153240606
1328,79009561.12574925
2053,0.0
2,1, 1, 1, 0, 5, 0.00,60.00,Sunday
8,27111378.387521897
1328,76573097.39166237
2053,7676520.143803968
2,1, 1, 1, 0, 6, 0.00,60.00,Sunday
8,26620585.47070591
1328,67923118.98577623
2053,7540033.989837159
2,1, 1, 1, 0, 7, 0.00,60.00,Sunday
8,30551469.80698879
1328,70210784.0927514
2053,5468913.076664072
2,1, 1, 1, 0, 8, 0.00,60.00,Sunday
8,30792113.264319308
1328,72188388.4043063
2053,5415895.629851125
2,1, 1, 1, 0, 9, 0.00,60.00,Sunday
8,31084990.95828056
1328,61242816.145175114
2053,7373633.6231421055
2,1, 1, 1, 0,10, 0.00,60.00,Sunday
8,30471896.078950122
1328,68841998.94593032
2053,5840870.740537448
2,1, 1, 1, 0,11, 0.00,60.00,Sunday
8,26082517.94771654
1328,57057846.02158462
2053,5490158.575973741
2,1, 1, 1, 0,12, 0.00,60.00,Sunday
8,24245918.05000698
1328,41802552.92671818
2053,7649161.664525665
2,1, 1, 1, 0,13, 0.00,60.00,Sunday
8,23717707.810391814
1328,42075840.379474916
2053,6122885.416443258
2,1, 1, 1, 0,14, 0.00,60.00,Sunday
8,23795784.975761447
1328,43686354.42686102
2053,6474882.052417632
2,1, 1, 1, 0,15, 0.00,60.00,Sunday
8,23700648.278682537
1328,41910836.30353673
2053,7675494.645122168
2,1, 1, 1, 0,16, 0.00,60.00,Sunday
8,24823735.31242909
1328,48090485.40711467
2053,5344971.729281114
2,1, 1, 1, 0,17, 0.00,60.00,Sunday
8,31039800.143140912
1328,61815161.30915109
2053,5876815.324066142
2,1, 1, 1, 0,18, 0.00,60.00,Sunday
8,30278645.482442718
1328,69192843.73786059
2053,7102353.540679799
2,1, 1, 1, 0,19, 0.00,60.00,Sunday
8,28459753.806194756
1328,83832559.7395015
2053,5195213.005859762
2,1, 1, 1, 0,20, 0.00,60.00,Sunday
8,28865882.68787217
1328,91731007.80026838
2053,4963499.460287344
2,1, 1, 1, 0,21, 0.00,60.00,Sunday
8,28272952.867111187
1328,80102269.78529754
2053,0.0
2,1, 1, 1, 0,22, 0.00,60.00,Sunday
8,28091332.40068362
1328,75833631.36573693
2053,1538219.6677645985
2,1, 1, 1, 0,23, 0.00,60.00,Sunday
8,27654143.127256297
1328,67821450.45712352
2053,0.0
2,1, 1, 1, 0,24, 0.00,60.00,Sunday
8,27833733.20299395
1328,70187923.63710256
2053,0.0
2,2, 1, 2, 0, 1, 0.00,60.00,Monday
8,136846566.0435995
1328,394614570.8653608
2053,10828790.764911266
2,2, 1, 2, 0, 2, 0.00,60.00,Monday
8,53314649.36335806
1328,309227564.75277466
2053,8762391.846682122
2,2, 1, 2, 0, 3, 0.00,60.00,Monday
8,52898675.02630015
1328,361053963.2895744
2053,6823523.276558145
2,2, 1, 2, 0, 4, 0.00,60.00,Monday
8,43336502.32187508
1328,164136604.69210857
2053,7683978.306952056
2,2, 1, 2, 0, 5, 0.00,60.00,Monday
8,32001992.877918832
1328,32900120.775592394
2053,6475975.864281833
2,2, 1, 2, 0, 6, 0.00,60.00,Monday
8,28855432.347114187
1328,18342626.00826894
2053,5413537.138540557
2,2, 1, 2, 0, 7, 0.00,60.00,Monday
8,32596213.99962507
1328,44408728.32830543
2053,7187510.037269448
2,2, 1, 2, 0, 8, 0.00,60.00,Monday
8,33119239.87253914
1328,56742474.636708945
2053,6182774.469308331
2,2, 1, 2, 0, 9, 0.00,60.00,Monday
8,33483881.03130179
1328,48203521.23230767
2053,5282540.3331550695
2,2, 1, 2, 0,10, 0.00,60.00,Monday
8,32058397.798104536
1328,49140462.3528938
2053,6803986.05158785
2,2, 1, 2, 0,11, 0.00,60.00,Monday
8,26348847.37009716
1328,31958084.742109228
2053,6256760.336528893
2,2, 1, 2, 0,12, 0.00,60.00,Monday
8,26059487.40200203
1328,32691623.055847477
2053,5162042.399457504
2,2, 1, 2, 0,13, 0.00,60.00,Monday
8,25781650.4367375
1328,32505767.075752158
2053,5987281.062674526
2,2, 1, 2, 0,14, 0.00,60.00,Monday
8,25216191.390729092
1328,28635383.71229711
2053,6757242.107890743
2,2, 1, 2, 0,15, 0.00,60.00,Monday
8,25125454.554155473
1328,30531103.5320436
2053,5039064.674884681
2,2, 1, 2, 0,16, 0.00,60.00,Monday
8,25477256.634319652
1328,36963548.46769721
2053,5010285.0740126055
2,2, 1, 2, 0,17, 0.00,60.00,Monday
8,31260014.174685
1328,52098447.644775726
2053,6283896.173713738
2,2, 1, 2, 0,18, 0.00,60.00,Monday
8,29360400.57867645
1328,43987484.88715087
2053,707773.5534770904
2,2, 1, 2, 0,19, 0.00,60.00,Monday
8,29940400.11274206
1328,53487738.40741337
2053,0.0
2,2, 1, 2, 0,20, 0.00,60.00,Monday
8,30385711.092879817
1328,61163182.793239124
2053,0.0
2,2, 1, 2, 0,21, 0.00,60.00,Monday
8,32624949.174910933
1328,84586912.45512256
2053,0.0
2,2, 1, 2, 0,22, 0.00,60.00,Monday
8,63709347.0478007
1328,215384545.1591227
2053,9786626.702842232
2,2, 1, 2, 0,23, 0.00,60.00,Monday
8,87225066.72476377
1328,428102917.3041865
2053,11228412.938862158
2,2, 1, 2, 0,24, 0.00,60.00,Monday
8,90060565.7887424
1328,432402466.4142875
2053,9994925.202761997
2,3, 1, 3, 0, 1, 0.00,60.00,Tuesday
8,57219733.344397455
1328,351593983.1912031
2053,9293725.133124717
2,3, 1, 3, 0, 2, 0.00,60.00,Tuesday
8,52668502.53913608
1328,287552342.8142946
2053,6918825.146515841
2,3, 1, 3, 0, 3, 0.00,60.00,Tuesday
8,50205854.12504512
1328,270052064.9419645
2053,8558855.500223579
2,3, 1, 3, 0, 4, 0.00,60.00,Tuesday
8,41204567.60404219
1328,112413730.28544845
2053,7265244.682807187
2,3, 1, 3, 0, 5, 0.00,60.00,Tuesday
8,30069206.05308448
1328,13269496.611728616
2053,5465709.486537537
2,3, 1, 3, 0, 6, 0.00,60.00,Tuesday
8,28114235.724369217
1328,11361804.242506519
2053,7079316.360292453
2,3, 1, 3, 0, 7, 0.00,60.00,Tuesday
8,31079904.064318996
1328,27823254.690278087
2053,6402287.8490810655
2,3, 1, 3, 0, 8, 0.00,60.00,Tuesday
8,32289022.078885842
1328,44384818.52073111
2053,5324044.0502447
2,3, 1, 3, 0, 9, 0.00,60.00,Tuesday
8,33932294.14168324
1328,54739751.73670091
2053,6810475.201457325
2,3, 1, 3, 0,10, 0.00,60.00,Tuesday
8,32236754.026509117
1328,52582007.69736469
2053,6354444.255027604
2,3, 1, 3, 0,11, 0.00,60.00,Tuesday
8,27495758.500427537
1328,40371483.26308965
2053,5197225.237729481
2,3, 1, 3, 0,12, 0.00,60.00,Tuesday
8,25787350.25375695
1328,27655185.21172932
2053,6141904.067776666
2,3, 1, 3, 0,13, 0.00,60.00,Tuesday
8,25334202.99114417
1328,24918000.389396966
2053,6714177.84428925
2,3, 1, 3, 0,14, 0.00,60.00,Tuesday
8,25252151.372345902
1328,26759825.404908054
2053,5074371.937111766
2,3, 1, 3, 0,15, 0.00,60.00,Tuesday
8,25131824.580260877
1328,28597969.110718768
2053,5046937.798642584
2,3, 1, 3, 0,16, 0.00,60.00,Tuesday
8,24710401.842965193
1328,24467567.335206784
2053,6657445.095129399
2,3, 1, 3, 0,17, 0.00,60.00,Tuesday
8,30840992.3019364
1328,41723434.326909624
2053,5813275.84698699
2,3, 1, 3, 0,18, 0.00,60.00,Tuesday
8,29288490.50616482
1328,41988193.02731978
2053,0.0
2,3, 1, 3, 0,19, 0.00,60.00,Tuesday
8,29217195.154101778
1328,42445898.755761534
2053,0.0
2,3, 1, 3, 0,20, 0.00,60.00,Tuesday
8,29332740.183163118
1328,43965382.72020354
2053,0.0
2,3, 1, 3, 0,21, 0.00,60.00,Tuesday
8,30095594.631020844
1328,50166357.545191035
2053,0.0
2,3, 1, 3, 0,22, 0.00,60.00,Tuesday
8,63379104.00756165
1328,157026532.15935314
2053,10044782.77373929
2,3, 1, 3, 0,23, 0.00,60.00,Tuesday
8,86943320.39556286
1328,379344573.10379374
2053,11300551.731349282
2,3, 1, 3, 0,24, 0.00,60.00,Tuesday
8,89821979.2949443
1328,397152136.60484856
2053,9994820.238004355
2,4, 1, 4, 0, 1, 0.00,60.00,Wednesday
8,56359533.258161925
1328,325197530.27847284
2053,9250177.907309826
2,4, 1, 4, 0, 2, 0.00,60.00,Wednesday
8,52142433.58048086
1328,269269784.6799762
2053,6919469.455939814
2,4, 1, 4, 0, 3, 0.00,60.00,Wednesday
8,49876459.73020975
1328,260994142.27924654
2053,8606125.454836942
2,4, 1, 4, 0, 4, 0.00,60.00,Wednesday
8,40723485.73864841
1328,108916777.52345705
2053,7218903.942184835
2,4, 1, 4, 0, 5, 0.00,60.00,Wednesday
8,30045309.781843007
1328,12961610.16360283
2053,5465890.286849332
2,4, 1, 4, 0, 6, 0.00,60.00,Wednesday
8,27624838.10906131
1328,7843529.936344415
2053,7134617.211826258
2,4, 1, 4, 0, 7, 0.00,60.00,Wednesday
8,30526310.162852082
1328,22824736.77528389
2053,6347146.00732615
2,4, 1, 4, 0, 8, 0.00,60.00,Wednesday
8,31806891.883505624
1328,37557963.328767985
2053,5324532.044585504
2,4, 1, 4, 0, 9, 0.00,60.00,Wednesday
8,33046719.523626305
1328,41152737.59869075
2053,6866579.57680705
2,4, 1, 4, 0,10, 0.00,60.00,Wednesday
8,31743765.789838325
1328,44535646.77246332
2053,6298449.7303035725
2,4, 1, 4, 0,11, 0.00,60.00,Wednesday
8,26299581.52652128
1328,26398335.28613915
2053,5197552.477553215
2,4, 1, 4, 0,12, 0.00,60.00,Wednesday
8,25008055.137052946
1328,17902107.357056696
2053,6198657.758983385
2,4, 1, 4, 0,13, 0.00,60.00,Wednesday
8,24699337.84874274
1328,17188170.619362798
2053,6657460.797686341
2,4, 1, 4, 0,14, 0.00,60.00,Wednesday
8,24119531.392018236
1328,13922895.001958748
2053,5074783.848029695
2,4, 1, 4, 0,15, 0.00,60.00,Wednesday
8,26019887.251799148
1328,30936004.36902248
2053,5059795.57367144
2,4, 1, 4, 0,16, 0.00,60.00,Wednesday
8,26389126.55822299
1328,38907201.74033813
2053,6700270.889591648
2,4, 1, 4, 0,17, 0.00,60.00,Wednesday
8,30703854.197976187
1328,39888337.78577225
2053,5757662.843015477
2,4, 1, 4, 0,18, 0.00,60.00,Wednesday
8,29573519.797488227
1328,45409109.22621001
2053,0.0
2,4, 1, 4, 0,19, 0.00,60.00,Wednesday
8,29099271.89345584
1328,40760370.28496621
2053,0.0
2,4, 1, 4, 0,20, 0.00,60.00,Wednesday
8,28800274.09577388
1328,36445413.47867833
2053,0.0
2,4, 1, 4, 0,21, 0.00,60.00,Wednesday
8,31434462.221368574
1328,71210411.89387514
2053,0.0
2,4, 1, 4, 0,22, 0.00,60.00,Wednesday
8,63472458.4259072
1328,175185579.6476635
2053,10063394.923499998
2,4, 1, 4, 0,23, 0.00,60.00,Wednesday
8,86884939.30596812
1328,364354364.2957437
2053,11305557.381654032
2,4, 1, 4, 0,24, 0.00,60.00,Wednesday
8,89962375.81753922
1328,413248832.8321214
2053,9994812.861744884
2,5, 1, 5, 0, 1, 0.00,60.00,Thursday
8,56979097.01524331
1328,342695045.9392602
2053,9247162.110715773
2,5, 1, 5, 0, 2, 0.00,60.00,Thursday
8,52164539.584989354
1328,272085083.6987456
2053,6919514.213019094
2,5, 1, 5, 0, 3, 0.00,60.00,Thursday
8,49914969.740689166
1328,262553023.0446188
2053,8609398.853029145
2,5, 1, 5, 0, 4, 0.00,60.00,Thursday
8,41405411.90557572
1328,125467898.77801317
2053,7216080.791145708
2,5, 1, 5, 0, 5, 0.00,60.00,Thursday
8,29009634.120821774
1328,6253929.886789935
2053,5465888.79114238
2,5, 1, 5, 0, 6, 0.00,60.00,Thursday
8,29596946.305531397
1328,25613478.195150867
2053,7137719.583835195
2,5, 1, 5, 0, 7, 0.00,60.00,Thursday
8,32229216.6862395
1328,40362790.74744296
2053,6344052.478034364
2,5, 1, 5, 0, 8, 0.00,60.00,Thursday
8,33772920.979012765
1328,68478877.76752514
2053,5324559.508634118
2,5, 1, 5, 0, 9, 0.00,60.00,Thursday
8,36698246.31847867
1328,107932023.53949675
2053,6869725.578652378
2,5, 1, 5, 0,10, 0.00,60.00,Thursday
8,34904385.12399867
1328,104094331.58968234
2053,6295309.840816321
2,5, 1, 5, 0,11, 0.00,60.00,Thursday
8,30501840.564104
1328,92198282.61832018
2053,5197571.084856494
2,5, 1, 5, 0,12, 0.00,60.00,Thursday
8,28640688.85726854
1328,67199985.9738733
2053,6201840.17662322
2,5, 1, 5, 0,13, 0.00,60.00,Thursday
8,28399612.985977773
1328,69509620.87349145
2053,6654280.560617644
2,5, 1, 5, 0,14, 0.00,60.00,Thursday
8,29644793.561253536
1328,95656267.21041676
2053,5074796.759587048
2,5, 1, 5, 0,15, 0.00,60.00,Thursday
8,29787510.102891844
1328,103540229.0890321
2053,5063065.025352904
2,5, 1, 5, 0,16, 0.00,60.00,Thursday
8,30018133.073258225
1328,111359673.9900647
2053,6700240.044624603
2,5, 1, 5, 0,17, 0.00,60.00,Thursday
8,35879680.02904975
1328,144739018.5061745
2053,5754454.965557583
2,5, 1, 5, 0,18, 0.00,60.00,Thursday
8,33462651.69662548
1328,123619814.91695185
2053,0.0
2,5, 1, 5, 0,19, 0.00,60.00,Thursday
8,33821048.929961696
1328,134593612.92922586
2053,0.0
2,5, 1, 5, 0,20, 0.00,60.00,Thursday
8,32910960.7926863
1328,113022591.58840056
2053,0.0
2,5, 1, 5, 0,21, 0.00,60.00,Thursday
8,33362228.26205488
1328,113826585.60642472
2053,0.0
2,5, 1, 5, 0,22, 0.00,60.00,Thursday
8,63855093.47128384
1328,244158286.53425726
2053,10064430.339153266
2,5, 1, 5, 0,23, 0.00,60.00,Thursday
8,87602090.10673562
1328,447110673.14025885
2053,11305838.914942294
2,5, 1, 5, 0,24, 0.00,60.00,Thursday
8,90415413.80815543
1328,476200134.4474919
2053,9994812.44667663
2,6, 1, 6, 0, 1, 0.00,60.00,Friday
8,58342650.70633731
1328,388989992.1515643
2053,9246992.470522298
2,6, 1, 6, 0, 2, 0.00,60.00,Friday
8,53811318.821002096
1328,326536092.02930796
2053,6919516.726376413
2,6, 1, 6, 0, 3, 0.00,60.00,Friday
8,51070378.43529548
1328,301421556.1954809
2053,8609582.986031625
2,6, 1, 6, 0, 4, 0.00,60.00,Friday
8,41926762.98838965
1328,132631767.9733592
2053,7215921.988192218
2,6, 1, 6, 0, 5, 0.00,60.00,Friday
8,31423948.16817761
1328,25967728.99540048
2053,5465888.705027949
2,6, 1, 6, 0, 6, 0.00,60.00,Friday
8,29413293.55234081
1328,24965623.144675054
2053,7138623.256063679
2,6, 1, 6, 0, 7, 0.00,60.00,Friday
8,34139167.14464744
1328,69469520.613821
2053,6343293.400294943
2,6, 1, 6, 0, 8, 0.00,60.00,Friday
8,33965131.794498935
1328,73381212.78852916
2053,5324503.087010215
2,6, 1, 6, 0, 9, 0.00,60.00,Friday
8,35389347.91562052
1328,81425634.16569301
2053,6870121.342338386
2,6, 1, 6, 0,10, 0.00,60.00,Friday
8,33376839.553557727
1328,72864342.34644294
2053,6294911.331807055
2,6, 1, 6, 0,11, 0.00,60.00,Friday
8,30571915.853224743
1328,92216529.4203886
2053,5197573.438335101
2,6, 1, 6, 0,12, 0.00,60.00,Friday
8,29139497.219525553
1328,74905759.47753629
2053,6202243.9089756785
2,6, 1, 6, 0,13, 0.00,60.00,Friday
8,28925823.52672741
1328,77442888.76385255
2053,6653877.092748572
2,6, 1, 6, 0,14, 0.00,60.00,Friday
8,28580302.47328191
1328,77647084.98216814
2053,5074798.361123305
2,6, 1, 6, 0,15, 0.00,60.00,Friday
8,29750982.481557578
1328,97154827.608124
2053,5063479.817130831
2,6, 1, 6, 0,16, 0.00,60.00,Friday
8,30919095.275138367
1328,128713057.09930241
2053,6700236.1395159885
2,6, 1, 6, 0,17, 0.00,60.00,Friday
8,32219800.96090453
1328,135770156.00329873
2053,5754047.982645832
2,6, 1, 6, 0,18, 0.00,60.00,Friday
8,33054639.94396892
1328,113865170.68261063
2053,0.0
2,6, 1, 6, 0,19, 0.00,60.00,Friday
8,33839499.83280338
1328,134712123.425097
2053,0.0
2,6, 1, 6, 0,20, 0.00,60.00,Friday
8,33901193.24374167
1328,137006982.55430502
2053,0.0
2,6, 1, 6, 0,21, 0.00,60.00,Friday
8,34334870.88010226
1328,138450629.9208258
2053,0.0
2,6, 1, 6, 0,22, 0.00,60.00,Friday
8,64249679.7954506
1328,304641862.5368379
2053,10064561.678408269
2,6, 1, 6, 0,23, 0.00,60.00,Friday
8,90085423.36946927
1328,496418342.8128127
2053,11305874.654465621
2,6, 1, 6, 0,24, 0.00,60.00,Friday
8,90518988.44823444
1328,483877895.6844139
2053,9994812.393751929
2,7, 1, 7, 0, 1, 0.00,60.00,Saturday
8,22539449.153290506
1328,51460294.90791054
2053,536837.8837198736
2,7, 1, 7, 0, 2, 0.00,60.00,Saturday
8,25593335.870048985
1328,78463687.29370397
2053,0.0
2,7, 1, 7, 0, 3, 0.00,60.00,Saturday
8,27145867.60244988
1328,99374311.91589078
2053,0.0
2,7, 1, 7, 0, 4, 0.00,60.00,Saturday
8,27024450.614040952
1328,97477730.18306835
2053,0.0
2,7, 1, 7, 0, 5, 0.00,60.00,Saturday
8,28440395.19835261
1328,129458290.92338961
2053,0.0
2,7, 1, 7, 0, 6, 0.00,60.00,Saturday
8,36780726.77658926
1328,263882916.89474663
2053,9208812.160027754
2,7, 1, 7, 0, 7, 0.00,60.00,Saturday
8,49208409.393591896
1328,429983917.2069626
2053,6040830.602097804
2,7, 1, 7, 0, 8, 0.00,60.00,Saturday
8,66229089.95560937
1328,462426035.4695548
2053,8479423.031176854
2,7, 1, 7, 0, 9, 0.00,60.00,Saturday
8,73309202.11142056
1328,385388604.46972084
2053,7364735.352416644
2,7, 1, 7, 0,10, 0.00,60.00,Saturday
8,74304055.75690801
1328,331384466.37096196
2053,8443478.548514908
2,7, 1, 7, 0,11, 0.00,60.00,Saturday
8,67535408.91474624
1328,284681007.9916201
2053,9419452.02764704
2,7, 1, 7, 0,12, 0.00,60.00,Saturday
8,64115017.92575897
1328,277860685.3538453
2053,9615200.914704178
2,7, 1, 7, 0,13, 0.00,60.00,Saturday
8,44708637.75507131
1328,265221830.7637963
2053,7818342.53199147
2,7, 1, 7, 0,14, 0.00,60.00,Saturday
8,41360023.64833323
1328,217063368.27351248
2053,8365902.132848553
2,7, 1, 7, 0,15, 0.00,60.00,Saturday
8,40785176.22896097
1328,226960031.1181875
2053,8929502.098809969
2,7, 1, 7, 0,16, 0.00,60.00,Saturday
8,37882879.7962441
1328,161446745.81241775
2053,6829617.332570802
2,7, 1, 7, 0,17, 0.00,60.00,Saturday
8,32942653.241498593
1328,98198930.75449878
2053,7710175.355698174
2,7, 1, 7, 0,18, 0.00,60.00,Saturday
8,30176608.914191402
1328,68628696.17841141
2053,7451797.941908842
2,7, 1, 7, 0,19, 0.00,60.00,Saturday
8,27126841.15626007
1328,51917503.33725821
2053,5435557.898002865
2,7, 1, 7, 0,20, 0.00,60.00,Saturday
8,26248872.842079256
1328,55250043.2575965
2053,6042477.428157865
2,7, 1, 7, 0,21, 0.00,60.00,Saturday
8,27228748.94289292
1328,77185170.24694414
2053,948049.4357563592
2,7, 1, 7, 0,22, 0.00,60.00,Saturday
8,27104490.975443646
1328,76048085.21631354
2053,0.0
2,7, 1, 7, 0,23, 0.00,60.00,Saturday
8,27484376.832769725
1328,83288793.45360568
2053,0.0
2,7, 1, 7, 0,24, 0.00,60.00,Saturday
8,27759223.846921206
1328,89257568.67446087
2053,0.0
2,8, 1, 8, 0, 1, 0.00,60.00,Sunday
8,28042978.016701546
1328,92324927.78699344
2053,0.0
2,8, 1, 8, 0, 2, 0.00,60.00,Sunday
8,26862975.93774375
1328,93762283.35613286
2053,0.0
2,8, 1, 8, 0, 3, 0.00,60.00,Sunday
8,26583867.478225123
1328,88297062.13993438
2053,0.0
2,8, 1, 8, 0, 4, 0.00,60.00,Sunday
8,26535427.034990393
1328,87050159.19434121
2053,0.0
2,8, 1, 8, 0, 5, 0.00,60.00,Sunday
8,26442097.204839725
1328,84993045.67431393
2053,8799321.090386724
2,8, 1, 8, 0, 6, 0.00,60.00,Sunday
8,25995205.79844183
1328,76225172.9012801
2053,6934931.725121365
2,8, 1, 8, 0, 7, 0.00,60.00,Sunday
8,30788040.159799792
1328,94397615.51539499
2053,5231254.615512348
2,8, 1, 8, 0, 8, 0.00,60.00,Sunday
8,30738783.906153332
1328,94103744.44555905
2053,6275676.581489401
2,8, 1, 8, 0, 9, 0.00,60.00,Sunday
8,31203963.006380953
1328,78232120.5644639
2053,7018957.820372474
2,8, 1, 8, 0,10, 0.00,60.00,Sunday
8,30253201.13558277
1328,83591380.51947577
2053,5327988.768163735
2,8, 1, 8, 0,11, 0.00,60.00,Sunday
8,26194500.728367224
1328,73452441.9680504
2053,6346242.148369998
2,8, 1, 8, 0,12, 0.00,60.00,Sunday
8,24651922.790766984
1328,49884582.33970922
2053,7289053.007193814
2,8, 1, 8, 0,13, 0.00,60.00,Sunday
8,24544911.2335281
1328,46620778.21158817
2053,5599921.697708656
2,8, 1, 8, 0,14, 0.00,60.00,Sunday
8,25621013.54134086
1328,62247369.646158494
2053,7313333.438530684
2,8, 1, 8, 0,15, 0.00,60.00,Sunday
8,26603561.750754576
1328,78760029.84117238
2053,6871920.789957851
2,8, 1, 8, 0,16, 0.00,60.00,Sunday
8,26871039.93002446
1328,82864296.33169708
2053,5350324.235654839
2,8, 1, 8, 0,17, 0.00,60.00,Sunday
8,28884403.14339549
1328,97516668.62386827
2053,6719771.086071601
2,8, 1, 8, 0,18, 0.00,60.00,Sunday
8,31784847.962188385
1328,116971728.3526094
2053,6414558.397170604
2,8, 1, 8, 0,19, 0.00,60.00,Sunday
8,29332179.653965283
1328,124370185.52192281
2053,5059929.755960981
2,8, 1, 8, 0,20, 0.00,60.00,Sunday
8,29261541.573287923
1328,122724328.0646941
2053,5216159.516984971
2,8, 1, 8, 0,21, 0.00,60.00,Sunday
8,29037049.366108768
1328,117706090.17943133
2053,1379744.506823882
2,8, 1, 8, 0,22, 0.00,60.00,Sunday
8,29057606.556680106
1328,118012562.92597395
2053,0.0
2,8, 1, 8, 0,23, 0.00,60.00,Sunday
8,27867602.997051433
1328,92329714.38503842
2053,0.0
2,8, 1, 8, 0,24, 0.00,60.00,Sunday
8,28676375.358525854
1328,108213111.77648394
2053,0.0
2,9, 1, 9, 0, 1, 0.00,60.00,Monday
8,127446712.0729122
1328,404299765.361557
2053,11058760.60201707
2,9, 1, 9, 0, 2, 0.00,60.00,Monday
8,53729351.11899588
1328,329162682.8595223
2053,8775028.539991068
2,9, 1, 9, 0, 3, 0.00,60.00,Monday
8,53275519.14722287
1328,377875667.07435256
2053,6823399.190249653
2,9, 1, 9, 0, 4, 0.00,60.00,Monday
8,43671309.2526615
1328,167565529.6917023
2053,7670007.990937587
2,9, 1, 9, 0, 5, 0.00,60.00,Monday
8,32002397.751738463
1328,33453792.011351887
2053,6489084.496043592
2,9, 1, 9, 0, 6, 0.00,60.00,Monday
8,30835499.63341509
1328,39251380.28084348
2053,5413551.0625782935
2,9, 1, 9, 0, 7, 0.00,60.00,Monday
8,33655204.16158894
1328,61659348.98639259
2053,7180387.6052304935
2,9, 1, 9, 0, 8, 0.00,60.00,Monday
8,33641447.401756175
1328,67106435.0896444
2053,6193914.536545286
2,9, 1, 9, 0, 9, 0.00,60.00,Monday
8,34766492.68106017
1328,69514212.74272552
2053,5282792.890890586
2,9, 1, 9, 0,10, 0.00,60.00,Monday
8,33524441.245226666
1328,74645605.06771863
2053,6782822.448767646
2,9, 1, 9, 0,11, 0.00,60.00,Monday
8,29556546.927575283
1328,70484064.5468631
2053,6275904.644290728
2,9, 1, 9, 0,12, 0.00,60.00,Monday
8,28410227.29512721
1328,57023520.334154926
2053,5156720.31299701
2,9, 1, 9, 0,13, 0.00,60.00,Monday
8,28540963.938901857
1328,63183900.76290438
2053,5972966.275401382
2,9, 1, 9, 0,14, 0.00,60.00,Monday
8,27959850.124030497
1328,58143628.48500328
2053,6784756.350433418
2,9, 1, 9, 0,15, 0.00,60.00,Monday
8,28835687.368527237
1328,76328410.10516115
2053,5035388.390342226
2,9, 1, 9, 0,16, 0.00,60.00,Monday
8,28468149.23640351
1328,73759887.96967627
2053,5006510.568300946
2,9, 1, 9, 0,17, 0.00,60.00,Monday
8,29437458.26990132
1328,73088241.1823642
2053,6257643.024320404
2,9, 1, 9, 0,18, 0.00,60.00,Monday
8,31516572.334840458
1328,78927225.93550593
2053,729465.6630256785
2,9, 1, 9, 0,19, 0.00,60.00,Monday
8,30788662.249980427
1328,68455999.34763937
2053,0.0
2,9, 1, 9, 0,20, 0.00,60.00,Monday
8,30409267.40471105
1328,61147940.08885018
2053,0.0
2,9, 1, 9, 0,21, 0.00,60.00,Monday
8,31345263.764497317
1328,70831105.45324445
2053,0.0
2,9, 1, 9, 0,22, 0.00,60.00,Monday
8,63417116.77886619
1328,165872455.84776682
2053,9784279.953904027
2,9, 1, 9, 0,23, 0.00,60.00,Monday
8,86949947.5032047
1328,379789163.82575977
2053,11229444.198635899
2,9, 1, 9, 0,24, 0.00,60.00,Monday
8,89820148.39829117
1328,395928409.65295464
2053,9994923.55232985
2,10, 1,10, 0, 1, 0.00,60.00,Tuesday
8,56096553.76415396
1328,316386463.10305065
2053,9293036.139995135
2,10, 1,10, 0, 2, 0.00,60.00,Tuesday
8,51712750.69899557
1328,256271390.71434233
2053,6918835.307044109
2,10, 1,10, 0, 3, 0.00,60.00,Tuesday
8,49007506.43033448
1328,235049872.01978752
2053,8559603.447962092
2,10, 1,10, 0, 4, 0.00,60.00,Tuesday
8,39595385.23440725
1328,87152799.81887174
2053,7259021.955953975
2,10, 1,10, 0, 5, 0.00,60.00,Tuesday
8,28511639.59232801
1328,1651180.5594520597
2053,5465913.813430741
2,10, 1,10, 0, 6, 0.00,60.00,Tuesday
8,27406452.280710377
1328,7800400.145620769
2053,7090154.885212432
2,10, 1,10, 0, 7, 0.00,60.00,Tuesday
8,28494355.63556117
1328,6928577.724858243
2053,6391334.772108273
2,10, 1,10, 0, 8, 0.00,60.00,Tuesday
8,31996509.29945234
1328,37748165.44908707
2053,5324165.755371331
2,10, 1,10, 0, 9, 0.00,60.00,Tuesday
8,33214704.721652232
1328,43236100.936268225
2053,6821878.310131181
2,10, 1,10, 0,10, 0.00,60.00,Tuesday
8,31464648.49556195
1328,40763039.57254992
2053,6343064.58850141
2,10, 1,10, 0,11, 0.00,60.00,Tuesday
8,27354389.75826599
1328,36338043.58733772
2053,5197291.040225552
2,10, 1,10, 0,12, 0.00,60.00,Tuesday
8,26319210.04938717
1328,28086671.189265918
2053,6153438.255998476
2,10, 1,10, 0,13, 0.00,60.00,Tuesday
8,25545084.604241814
1328,23545053.27529724
2053,6702650.745308086
2,10, 1,10, 0,14, 0.00,60.00,Tuesday
8,25197784.97776548
1328,21995196.102106284
2053,5074602.982878032
2,10, 1,10, 0,15, 0.00,60.00,Tuesday
8,24420182.65019418
1328,19422533.833570726
2053,5046585.937498923
2,10, 1,10, 0,16, 0.00,60.00,Tuesday
8,25551381.472746797
1328,30010019.589726508
2053,6667217.134124505
2,10, 1,10, 0,17, 0.00,60.00,Tuesday
8,27393093.553524453
1328,38829196.78549866
2053,5803613.641378966
2,10, 1,10, 0,18, 0.00,60.00,Tuesday
8,28775979.977416668
1328,34706597.750240415
2053,0.0
2,10, 1,10, 0,19, 0.00,60.00,Tuesday
8,29055910.59952785
1328,39268648.51816491
2053,0.0
2,10, 1,10, 0,20, 0.00,60.00,Tuesday
8,29165126.55009618
1328,41111963.26462546
2053,0.0
2,10, 1,10, 0,21, 0.00,60.00,Tuesday
8,30210606.322584316
1328,51355631.75915735
2053,0.0
2,10, 1,10, 0,22, 0.00,60.00,Tuesday
8,63226093.05148208
1328,131113774.4724329
2053,10048559.154205268
2,10, 1,10, 0,23, 0.00,60.00,Tuesday
8,86699818.54668324
1328,334338949.50017476
2053,11301525.639048014
2,10, 1,10, 0,24, 0.00,60.00,Tuesday
8,89535029.1070484
1328,351767609.3405181
2053,9994818.802658841
2,11, 1,11, 0, 1, 0.00,60.00,Wednesday
8,55267162.86177344
1328,293699634.1813311
2053,9249591.205240794
2,11, 1,11, 0, 2, 0.00,60.00,Wednesday
8,50250438.40428466
1328,214011338.0581093
2053,6919478.153118082
2,11, 1,11, 0, 3, 0.00,60.00,Wednesday
8,47599051.57396216
1328,194412190.09906745
2053,8606762.258242708
2,11, 1,11, 0, 4, 0.00,60.00,Wednesday
8,37905432.13842802
1328,59024557.98346152
2053,7218354.733477825
2,11, 1,11, 0, 5, 0.00,60.00,Wednesday
8,28307597.78787729
1328,0.0
2053,5466536.879464566
2,11, 1,11, 0, 6, 0.00,60.00,Wednesday
8,26282175.27489968
1328,0.0
2053,7134685.788409632
2,11, 1,11, 0, 7, 0.00,60.00,Wednesday
8,27503362.30307126
1328,2219551.081231044
2053,6345572.328104923
2,11, 1,11, 0, 8, 0.00,60.00,Wednesday
8,28323817.076344047
1328,8302135.287192214
2053,5330129.639232928
2,11, 1,11, 0, 9, 0.00,60.00,Wednesday
8,31695713.947248742
1328,22978829.165214024
2053,6867628.634591811
2,11, 1,11, 0,10, 0.00,60.00,Wednesday
8,29820829.13264764
1328,20700759.467414416
2053,6290036.177776102
2,11, 1,11, 0,11, 0.00,60.00,Wednesday
8,25943572.158376813
1328,18648774.492808726
2053,5197585.396151993
2,11, 1,11, 0,12, 0.00,60.00,Wednesday
8,25649571.24597522
1328,19573024.653679278
2053,6205881.750043025
2,11, 1,11, 0,13, 0.00,60.00,Wednesday
8,25462169.664986208
1328,19933911.846263155
2053,6650253.814794878
2,11, 1,11, 0,14, 0.00,60.00,Wednesday
8,25914675.663394425
1328,27167081.579771463
2053,5074813.348453122
2,11, 1,11, 0,15, 0.00,60.00,Wednesday
8,25247998.04552898
1328,22990804.776330113
2053,5067208.7129662875
2,11, 1,11, 0,16, 0.00,60.00,Wednesday
8,25214380.460944958
1328,24255639.43540858
2053,6700200.837665588
2,11, 1,11, 0,17, 0.00,60.00,Wednesday
8,26740064.147021316
1328,30066138.70257931
2053,5750389.463842648
2,11, 1,11, 0,18, 0.00,60.00,Wednesday
8,28538676.948694892
1328,31142234.240572333
2053,0.0
2,11, 1,11, 0,19, 0.00,60.00,Wednesday
8,28356319.792838242
1328,30357328.734407596
2053,0.0
2,11, 1,11, 0,20, 0.00,60.00,Wednesday
8,28122528.882926576
1328,27710740.579653654
2053,0.0
2,11, 1,11, 0,21, 0.00,60.00,Wednesday
8,29517150.972277224
1328,40557380.627180636
2053,0.0
2,11, 1,11, 0,22, 0.00,60.00,Wednesday
8,63053778.74216706
1328,99496991.86409894
2053,10065742.532152405
2,11, 1,11, 0,23, 0.00,60.00,Wednesday
8,86516914.77245316
1328,298981614.51760703
2053,11306195.72765356
2,11, 1,11, 0,24, 0.00,60.00,Wednesday
8,89385467.50681125
1328,327561461.10844284
2053,9994811.918131897
2,12, 1,12, 0, 1, 0.00,60.00,Thursday
8,54802442.63836501
1328,282576794.0201075
2053,9246777.49283664
2,12, 1,12, 0, 2, 0.00,60.00,Thursday
8,50426117.37514994
1328,218389002.3370806
2053,6919519.8914728
2,12, 1,12, 0, 3, 0.00,60.00,Thursday
8,47728828.719708696
1328,198164872.1064011
2053,8609816.36917178
2,12, 1,12, 0, 4, 0.00,60.00,Thursday
8,37920852.91942071
1328,62521399.44132094
2053,7215720.705690738
2,12, 1,12, 0, 5, 0.00,60.00,Thursday
8,28654679.58963884
1328,2539471.337412858
2053,5465651.308070074
2,12, 1,12, 0, 6, 0.00,60.00,Thursday
8,26585033.28566728
1328,2003600.8549963539
2053,7139462.891370104
2,12, 1,12, 0, 7, 0.00,60.00,Thursday
8,27891498.795235388
1328,4375385.536711918
2053,6340769.833263482
2,12, 1,12, 0, 8, 0.00,60.00,Thursday
8,28778877.44391353
1328,11086201.02803866
2053,5324785.64726917
2,12, 1,12, 0, 9, 0.00,60.00,Thursday
8,31288566.0899882
1328,19520445.66367832
2053,6870706.584668438
2,12, 1,12, 0,10, 0.00,60.00,Thursday
8,29946206.76507589
1328,21528681.90263338
2053,6294496.286001861
2,12, 1,12, 0,11, 0.00,60.00,Thursday
8,25972680.01656726
1328,19972180.39507408
2053,5197790.497443372
2,12, 1,12, 0,12, 0.00,60.00,Thursday
8,25822036.425733995
1328,21152321.534046195
2053,6204573.049507656
2,12, 1,12, 0,13, 0.00,60.00,Thursday
8,25812866.49172688
1328,23883965.86150334
2053,6651595.61686354
2,12, 1,12, 0,14, 0.00,60.00,Thursday
8,25787436.84642184
1328,26454028.114788435
2053,5074808.124639635
2,12, 1,12, 0,15, 0.00,60.00,Thursday
8,26058459.314203795
1328,31867274.1981003
2053,5065835.499459898
2,12, 1,12, 0,16, 0.00,60.00,Thursday
8,25984289.27056573
1328,33765046.51692701
2053,6700213.842344481
2,12, 1,12, 0,17, 0.00,60.00,Thursday
8,27031003.33624923
1328,34387435.08729921
2053,5751736.7641053405
2,12, 1,12, 0,18, 0.00,60.00,Thursday
8,28526382.69324871
1328,31308436.964310896
2053,0.0
2,12, 1,12, 0,19, 0.00,60.00,Thursday
8,28086501.184450317
1328,27411651.650494467
2053,0.0
2,12, 1,12, 0,20, 0.00,60.00,Thursday
8,28486084.42917932
1328,31528810.73878183
2053,0.0
2,12, 1,12, 0,21, 0.00,60.00,Thursday
8,29831876.249766994
1328,45225444.21375312
2053,0.0
2,12, 1,12, 0,22, 0.00,60.00,Thursday
8,63082093.78077562
1328,103287141.72417885
2053,10065307.686203806
2,12, 1,12, 0,23, 0.00,60.00,Thursday
8,86523725.98755895
1328,298282398.99621266
2053,11306077.470987713
2,12, 1,12, 0,24, 0.00,60.00,Thursday
8,89436896.66235724
1328,333261237.9424436
2053,9994812.09351191
2,13, 1,13, 0, 1, 0.00,60.00,Friday
8,54919895.651870996
1328,285492968.9226859
2053,9246848.73838624
2,13, 1,13, 0, 2, 0.00,60.00,Friday
8,50230043.200671345
1328,212896680.36948624
2053,6919518.855791896
2,13, 1,13, 0, 3, 0.00,60.00,Friday
8,47595757.39720903