Program Version,EnergyPlus, Version 22.2.0-aa78da9668, YMD=2023.06.11 20:26
1,5,Environment Title[],Latitude[deg],Longitude[deg],Time Zone[],Elevation[m]
2,8,Day of Simulation[],Month[],Day of Month[],DST Indicator[1=yes 0=no],Hour[],StartMinute[],EndMinute[],DayType
3,5,Cumulative Day of Simulation[],Month[],Day of Month[],DST Indicator[1=yes 0=no],DayType  ! When Daily Report Variables Requested
4,2,Cumulative Days of Simulation[],Month[]  ! When Monthly Report Variables Requested
5,1,Cumulative Days of Simulation[] ! When Run Period Report Variables Requested
6,1,Calendar Year of Simulation[] ! When Annual Report Variables Requested
1015,1,ZONE WAREHOUSE BULK A  - STORY GROUND,Zone Mean Air Temperature [C] !Hourly
1016,1,ZONE WAREHOUSE BULK A END_A - STORY GROUND,Zone Mean Air Temperature [C] !Hourly
1017,1,ZONE WAREHOUSE BULK B  - STORY GROUND,Zone Mean Air Temperature [C] !Hourly
1018,1,ZONE WAREHOUSE BULK B END_A - STORY GROUND,Zone Mean Air Temperature [C] !Hourly
1019,1,ZONE WAREHOUSE BULK C  - STORY GROUND,Zone Mean Air Temperature [C] !Hourly
1020,1,ZONE WAREHOUSE BULK C END_A - STORY GROUND,Zone Mean Air Temperature [C] !Hourly
1021,1,ZONE WAREHOUSE FINE A  - STORY GROUND,Zone Mean Air Temperature [C] !Hourly
1022,1,ZONE WAREHOUSE FINE A END_B - STORY GROUND,Zone Mean Air Temperature [C] !Hourly
1023,1,ZONE WAREHOUSE FINE B  - STORY GROUND,Zone Mean Air Temperature [C] !Hourly
1024,1,ZONE WAREHOUSE FINE B END_B - STORY GROUND,Zone Mean Air Temperature [C] !Hourly
1025,1,ZONE WAREHOUSE FINE C  - STORY GROUND,Zone Mean Air Temperature [C] !Hourly
1026,1,ZONE WAREHOUSE FINE C END_B - STORY GROUND,Zone Mean Air Temperature [C] !Hourly
1027,1,ZONE WAREHOUSE OFFICE A  - STORY GROUND,Zone Mean Air Temperature [C] !Hourly
1028,1,ZONE WAREHOUSE OFFICE B  - STORY GROUND,Zone Mean Air Temperature [C] !Hourly
1029,1,ZONE WAREHOUSE OFFICE C  - STORY GROUND,Zone Mean Air Temperature [C] !Hourly
8,1,Electricity:Facility [J] !TimeStep
2033,1,DistrictHeating:Facility [J] !TimeStep
End of Data Dictionary
1,RUN PERIOD 1,  57.75,-152.50,  -9.00,   5.00
2,1, 1, 1, 0, 1, 0.00,60.00,Sunday
8,9271859.692176512
2033,84845587.63620289
2,1, 1, 1, 0, 1, 0.00,60.00,Sunday
1015,7.1998602695360265
1016,7.197398739060073
1017,8.726478695341648
1018,7.201008087756514
1019,7.19980088053182
1020,7.2004647313874806
1021,15.559942650427956
1022,15.559860822149652
1023,15.559451377062558
1024,15.559937669092529
1025,15.558530369455445
1026,15.559889815232987
1027,15.597839056583277
1028,15.598897202211852
1029,15.598215870674151
2,1, 1, 1, 0, 2, 0.00,60.00,Sunday
8,9346051.323263245
2033,92059593.27556024
2,1, 1, 1, 0, 2, 0.00,60.00,Sunday
1015,7.198719997499803
1016,7.198279211618773
1017,8.66865936801684
1018,7.199317758153278
1019,7.200118953515103
1020,7.20075098048725
1021,15.55851579102169
1022,15.559980378241521
1023,15.559507139546742
1024,15.559993696772175
1025,15.558776777829694
1026,15.559984539836773
1027,15.598103930674359
1028,15.598942003571008
1029,15.598440729057724
2,1, 1, 1, 0, 3, 0.00,60.00,Sunday
8,9321580.339777714
2033,89953787.8758049
2,1, 1, 1, 0, 3, 0.00,60.00,Sunday
1015,7.201281949197406
1016,7.197435477919602
1017,8.626579396901313
1018,7.2011547956647926
1019,7.198560655214609
1020,7.198873160814187
1021,15.55824915102119
1022,15.559997319641516
1023,15.559531596643108
1024,15.559999460515279
1025,15.558689268956174
1026,15.559997899130579
1027,15.59810289157435
1028,15.598973602735065
1029,15.598432650394642
2,1, 1, 1, 0, 4, 0.00,60.00,Sunday
8,10322772.805996587
2033,71206092.95060788
2,1, 1, 1, 0, 4, 0.00,60.00,Sunday
1015,7.200400017668475
1016,7.199350680264175
1017,8.630514492381131
1018,7.199562477476543
1019,7.199076612393414
1020,7.200729864467944
1021,15.559370490922191
1022,15.559229566844362
1023,15.559463874774913
1024,15.559487556875041
1025,15.559544797517528
1026,15.559360101462913
1027,15.597534939912409
1028,15.598969529756783
1029,15.59794592405643
2,1, 1, 1, 0, 5, 0.00,60.00,Sunday
8,8979555.209398396
2033,64526013.56985201
2,1, 1, 1, 0, 5, 0.00,60.00,Sunday
1015,7.199838838234158
1016,7.20093866878045
1017,8.661153065430998
1018,7.20016182532861
1019,7.2001302120345825
1020,7.201274019353434
1021,15.55929534109829
1022,15.558840786378205
1023,15.559875427068631
1024,15.559241948561324
1025,15.559487153165277
1026,15.559027984820043
1027,15.597220243420821
1028,15.598952834168372
1029,15.597667497050411
2,1, 1, 1, 0, 6, 0.00,60.00,Sunday
8,8945304.488352904
2033,61570651.68257687
2,1, 1, 1, 0, 6, 0.00,60.00,Sunday
1015,7.20006764924115
1016,7.200766798186474
1017,8.689162129471825
1018,7.199671776377909
1019,7.200582093320722
1020,7.201370513391035
1021,15.55919763559637
1022,15.558635959023707
1023,15.5598774961781
1024,15.55993312841072
1025,15.559407779104644
1026,15.558847003335108
1027,15.598971824217
1028,15.59893932860223
1029,15.597522050814828
2,1, 1, 1, 0, 7, 0.00,60.00,Sunday
8,11313743.933424495
2033,61311512.81539361
2,1, 1, 1, 0, 7, 0.00,60.00,Sunday
1015,7.200368651575221
1016,7.198626771624478
1017,8.70615416082668
1018,7.200596854678229
1019,7.199669910073504
1020,7.198538508097954
1021,15.559188386739741
1022,15.558606664743287
1023,15.559872891880499
1024,15.559994042378724
1025,15.559392872661663
1026,15.558813312091788
1027,15.59919580290243
1028,15.598925582029297
1029,15.597485393098369
2,1, 1, 1, 0, 8, 0.00,60.00,Sunday
8,10054983.644547492
2033,61332245.26125016
2,1, 1, 1, 0, 8, 0.00,60.00,Sunday
1015,7.199733341339622
1016,7.2006583803750095
1017,8.714594851642559
1018,7.20007091970184
1019,7.199903145057395
1020,7.201451468122861
1021,15.559193587049162
1022,15.558611499920154
1023,15.559870870834636
1024,15.55999944487895
1025,15.559389613578393
1026,15.558809375834905
1027,15.599226564161457
1028,15.598916027375958
1029,15.59747346155038
2,1, 1, 1, 0, 9, 0.00,60.00,Sunday
8,10052579.218879739
2033,61204852.82747084
2,1, 1, 1, 0, 9, 0.00,60.00,Sunday
1015,7.200238022204164
1016,7.1997981744135435
1017,8.719318274251044
1018,7.19961725719345
1019,7.200401708222147
1020,7.199292532601109
1021,15.559191606329765
1022,15.55860480196563
1023,15.559869772674404
1024,15.559999923334233
1025,15.559381806856647
1026,15.558796489235249
1027,15.599229834063031
1028,15.598910295605618
1029,15.597459077354552
2,1, 1, 1, 0,10, 0.00,60.00,Sunday
8,11239237.086843515
2033,55700572.540841684
2,1, 1, 1, 0,10, 0.00,60.00,Sunday
1015,7.199782427216436
1016,7.199281546710696
1017,8.72400631132301
1018,7.199803731967739
1019,7.199974599075308
1020,7.200166464861075
1021,15.558969207181324
1022,15.559837428909796
1023,15.559866590191652
1024,15.559999948137307
1025,15.559202431744426
1026,15.55844076513948
1027,15.599154881078652
1028,15.598903282613936
1029,15.597244689653941
2,1, 1, 1, 0,11, 0.00,60.00,Sunday
8,6483669.672353798
2033,43900985.949761964
2,1, 1, 1, 0,11, 0.00,60.00,Sunday
1015,7.317645174668823
1016,7.199320976219627
1017,8.774327009069324
1018,7.19986941350688
1019,7.200152916100069
1020,7.199329282086632
1021,15.559507756855178
1022,15.559242219561304
1023,15.559807713481693
1024,15.559530971136725
1025,15.55870159418335
1026,15.559304963427119
1027,15.598796686468177
1028,15.598852602575985
1029,15.598878446101983
2,1, 1, 1, 0,12, 0.00,60.00,Sunday
8,6432333.801524229
2033,42515926.0640137
2,1, 1, 1, 0,12, 0.00,60.00,Sunday
1015,7.6528716541773125
1016,7.200032139690997
1017,8.87161361133957
1018,7.199922782517607
1019,7.200132901759627
1020,7.199735952446932
1021,15.559371487830937
1022,15.559053825463328
1023,15.559765880221136
1024,15.559551822972399
1025,15.5589688208171
1026,15.559485759392452
1027,15.598429581169194
1028,15.598932609020718
1029,15.59920731910936
2,1, 1, 1, 0,13, 0.00,60.00,Sunday
8,7673813.675533297
2033,41659094.621236205
2,1, 1, 1, 0,13, 0.00,60.00,Sunday
1015,7.947682123755337
1016,7.200300804609336
1017,9.003556128176028
1018,7.20033833548963
1019,7.199938262006379
1020,7.199899121240272
1021,15.558973303415103
1022,15.558717960933787
1023,15.559588322882224
1024,15.559464282104507
1025,15.558691382421742
1026,15.55942247481085
1027,15.599163899074126
1028,15.598663833886118
1029,15.599105299946729
2,1, 1, 1, 0,14, 0.00,60.00,Sunday
8,6438910.084479
2033,41892650.79527441
2,1, 1, 1, 0,14, 0.00,60.00,Sunday
1015,8.04906979421459
1016,7.20015627146196
1017,9.105425115509576
1018,7.20005096453707
1019,7.200155299096417
1020,7.200530119727453
1021,15.558933746659072
1022,15.558778626799464
1023,15.559575247115813
1024,15.559529205640724
1025,15.558676961910743
1026,15.55993490432572
1027,15.59921017685402
1028,15.599882322919603
1029,15.599081370152579
2,1, 1, 1, 0,15, 0.00,60.00,Sunday
8,6568203.372982193
2033,48564121.95198916
2,1, 1, 1, 0,15, 0.00,60.00,Sunday
1015,7.805404420615736
1016,7.200173413895766
1017,9.147447520461514
1018,7.199583337886501
1019,7.20024704530723
1020,7.200280538421985
1021,15.559309911014024
1022,15.559239578810226
1023,15.559612720539361
1024,15.559959268044283
1025,15.559098063121208
1026,15.558510654711489
1027,15.597987600349777
1028,15.599989633861588
1029,15.599204756934412
2,1, 1, 1, 0,16, 0.00,60.00,Sunday
8,7876343.900314072
2033,50772991.72023515
2,1, 1, 1, 0,16, 0.00,60.00,Sunday
1015,7.49793811250729
1016,7.19965202402406
1017,9.095200278247084
1018,7.19998648181012
1019,7.200172594205963
1020,7.200017514646628
1021,15.559637644858055
1022,15.559956573678338
1023,15.559798604604635
1024,15.559998521111613
1025,15.559342856896581
1026,15.558679603968557
1027,15.598436324109114
1028,15.598841594180744
1029,15.599333438901823
2,1, 1, 1, 0,17, 0.00,60.00,Sunday
8,9986701.022595178
2033,55977077.090267
2,1, 1, 1, 0,17, 0.00,60.00,Sunday
1015,7.200027267748564
1016,7.200570361311059
1017,9.005347655476145
1018,7.200065739746973
1019,7.20020821769724
1020,7.198669608883457
1021,15.55875907867751
1022,15.559998994517677
1023,15.559800694343098
1024,15.559999992733793
1025,15.559348793838524
1026,15.558714580863926
1027,15.598716897707394
1028,15.598667702620386
1029,15.597588411208694
2,1, 1, 1, 0,18, 0.00,60.00,Sunday
8,10002094.146837108
2033,57908750.572916135
2,1, 1, 1, 0,18, 0.00,60.00,Sunday
1015,7.200013116427208
1016,7.199255194447863
1017,8.924233073385508
1018,7.199631158940847
1019,7.199344081042366
1020,7.199945156752762
1021,15.558863380367045
1022,15.558482066206738
1023,15.559823178456009
1024,15.560000005437374
1025,15.559357544490204
1026,15.558731016819069
1027,15.598924635372551
1028,15.59870742166399
1029,15.597389578440726
2,1, 1, 1, 0,19, 0.00,60.00,Sunday
8,11270394.727275075
2033,58419171.17599596
2,1, 1, 1, 0,19, 0.00,60.00,Sunday
1015,7.199913863910173
1016,7.198910981655775
1017,8.868742824899204
1018,7.200120795664316
1019,7.200027440238079
1020,7.200925893306619
1021,15.558937051483504
1022,15.558352469999887
1023,15.559833913196284
1024,15.560000003746199
1025,15.55936216414412
1026,15.558739145801592
1027,15.59902855395966
1028,15.59875100626878
1029,15.597378949732377
2,1, 1, 1, 0,20, 0.00,60.00,Sunday
8,10049762.42040764
2033,61285171.42254871
2,1, 1, 1, 0,20, 0.00,60.00,Sunday
1015,7.199922401437208
1016,7.19845152771632
1017,8.838672131004163
1018,7.199858668016655
1019,7.200008072672064
1020,7.200807306835672
1021,15.559077922510502
1022,15.558533472736904
1023,15.559836367102896
1024,15.560000001144395
1025,15.55943004349106
1026,15.558876005329044
1027,15.599114009698264
1028,15.598780649516906
1029,15.597474242059116
2,1, 1, 1, 0,21, 0.00,60.00,Sunday
8,10054805.959896097
2033,61732685.207121626
2,1, 1, 1, 0,21, 0.00,60.00,Sunday
1015,7.200466787081118
1016,7.199403199366281
1017,8.81827655701274
1018,7.200925943327528
1019,7.199967676478724
1020,7.200357411684051
1021,15.559110986012156
1022,15.558575381656642
1023,15.55984257573867
1024,15.559999975819919
1025,15.559438107914225
1026,15.558897219025026
1027,15.599144364818306
1028,15.598806163096842
1029,15.597494849707298
2,1, 1, 1, 0,22, 0.00,60.00,Sunday
8,10058042.821028993
2033,61932905.46007652
2,1, 1, 1, 0,22, 0.00,60.00,Sunday
1015,7.200196187615284
1016,7.199378035377231
1017,8.802807219383837
1018,7.1990946426930815
1019,7.1996419741122395
1020,7.201419319338656
1021,15.559130722049243
1022,15.558597546963062
1023,15.559845560752064
1024,15.55999997068444
1025,15.55944018159302
1026,15.558903429789261
1027,15.599161218689646
1028,15.59882351036639
1029,15.597503605423935
2,1, 1, 1, 0,23, 0.00,60.00,Sunday
8,11365090.623561202
2033,65632010.1658441
2,1, 1, 1, 0,23, 0.00,60.00,Sunday
1015,7.200128344944714
1016,7.1999240263042665
1017,8.77748629644925
1018,7.200055737713625
1019,7.200270552939243
1020,7.199397652299535
1021,15.559271006523677
1022,15.558811942189038
1023,15.559860675102337
1024,15.559343225921543
1025,15.559523396657067
1026,15.55906321131894
1027,15.59922403732878
1028,15.598851269554967
1029,15.597631968197478
2,1, 1, 1, 0,24, 0.00,60.00,Sunday
8,10149508.87589489
2033,68880024.38046016
2,1, 1, 1, 0,24, 0.00,60.00,Sunday
1015,7.20038927192923
1016,7.200005642015765
1017,8.743740115612345
1018,7.201256597990176
1019,7.199647535747859
1020,7.200814241237155
1021,15.559383750446832
1022,15.558991873226212
1023,15.559873674647022
1024,15.559380452756807
1025,15.559591272068216
1026,15.55919839693686
1027,15.597488538862398
1028,15.598879692904523
1029,15.59775507240676
2,2, 1, 2, 0, 1, 0.00,60.00,Monday
8,10450894.308124028
2033,68726381.44925418
2,2, 1, 2, 0, 1, 0.00,60.00,Monday
1015,7.199957741356588
1016,7.198828488071039
1017,8.754990037550302
1018,7.201062204068283
1019,7.200075385230949
1020,7.200691920077097
1021,15.559406000550123
1022,15.55903003055555
1023,15.559876251018919
1024,15.55939014789472
1025,15.559599977940481
1026,15.55922182466775
1027,15.597205297778787
1028,15.598816336013519
1029,15.597711174715679
2,2, 1, 2, 0, 2, 0.00,60.00,Monday
8,11715330.653020697
2033,69064092.09774467
2,2, 1, 2, 0, 2, 0.00,60.00,Monday
1015,7.199441261957332
1016,7.198730740773961
1017,8.769933255619911
1018,7.200340149404205
1019,7.200970824357245
1020,7.200001465220959
1021,15.559424061327944
1022,15.559053984229484
1023,15.559882867132806
1024,15.559402246333665
1025,15.559605790384307
1026,15.559233949548842
1027,15.597191245426968
1028,15.5988137783081
1029,15.597706804161998
2,2, 1, 2, 0, 3, 0.00,60.00,Monday
8,10502971.710777173
2033,72522199.1052164
2,2, 1, 2, 0, 3, 0.00,60.00,Monday
1015,7.20000104832855
1016,7.199736312551134
1017,8.766523672201357
1018,7.199709592501626
1019,7.200702932304344
1020,7.1994649591469635
1021,15.559514849740687
1022,15.559198546287002
1023,15.559889560491278
1024,15.559493182237066
1025,15.559663867481982
1026,15.559346391897213
1027,15.597340849946214
1028,15.598821317774405
1029,15.597813914566634
2,2, 1, 2, 0, 4, 0.00,60.00,Monday
8,10463172.496208007
2033,69594055.86419715
2,2, 1, 2, 0, 4, 0.00,60.00,Monday
1015,7.2000370408867
1016,7.201423408508207
1017,8.760160167865715
1018,7.200662055730865
1019,7.199693081393851
1020,7.200043165395984
1021,15.559456771401933
1022,15.559104229014183
1023,15.559888147165701
1024,15.559425027456053
1025,15.559617429491249
1026,15.55926253402903
1027,15.597260703131315
1028,15.598820685616062
1029,15.597733033408982
2,2, 1, 2, 0, 5, 0.00,60.00,Monday
8,11723626.175992692
2033,69594601.5973271
2,2, 1, 2, 0, 5, 0.00,60.00,Monday
1015,7.199616472322962
1016,7.200784464902233
1017,8.757965789281888
1018,7.199933887162768
1019,7.1992026188024125
1020,7.20154993941217
1021,15.559459292062717
1022,15.559101643840524
1023,15.559887656652798
1024,15.559421332091992
1025,15.559613877253737
1026,15.559254552831826
1027,15.59726761588329
1028,15.598819434324533
1029,15.597722944381925
2,2, 1, 2, 0, 6, 0.00,60.00,Monday
8,10468193.578388508
2033,69811653.88497724
2,2, 1, 2, 0, 6, 0.00,60.00,Monday
1015,7.199747784847174
1016,7.198967050585499
1017,8.754087491242476
1018,7.200777043509555
1019,7.200155785917298
1020,7.19981203418721
1021,15.559469747864172
1022,15.559113018966883
1023,15.559890750796706
1024,15.559426723617579
1025,15.559615791118379
1026,15.559257881742335
1027,15.597292410885249
1028,15.598824559078013
1029,15.597726453849557
2,2, 1, 2, 0, 7, 0.00,60.00,Monday
8,15624198.978393761
2033,91320451.35576303
2,2, 1, 2, 0, 7, 0.00,60.00,Monday
1015,7.200015447958885
1016,7.200037874831397
1017,8.758528160344992
1018,7.200056071294403
1019,7.200056305167239
1020,7.200062930438284
1021,15.559877325490627
1022,15.559767071068938
1023,15.559978552868888
1024,15.559877729839215
1025,15.55990786614934
1026,15.559800620097171
1027,21.054382992835954
1028,21.033759538482844
1029,21.054529663377416
2,2, 1, 2, 0, 8, 0.00,60.00,Monday
8,19626591.049908426
2033,90189127.06356283
2,2, 1, 2, 0, 8, 0.00,60.00,Monday
1015,7.199195126794175
1016,7.1994385161521635
1017,8.88245888804469
1018,7.200070860045083
1019,7.200489223992453
1020,7.199605044280175
1021,15.559364844655724
1022,15.559268167767058
1023,15.559877848925229
1024,15.559463021622149
1025,15.559520479687066
1026,15.559377537715505
1027,21.104047952913238
1028,21.10245846567488
1029,21.102351047388527
2,2, 1, 2, 0, 9, 0.00,60.00,Monday
8,27602670.493071754
2033,78954208.76319376
2,2, 1, 2, 0, 9, 0.00,60.00,Monday
1015,7.199731296287341
1016,7.199426068927314
1017,9.18773089513413
1018,7.20024872933393
1019,7.200178202320612
1020,7.199633983840387
1021,15.559011097211386
1022,15.559125647462176
1023,15.559966095850452
1024,15.55997933838217
1025,15.559228379227367
1026,15.55924716842644
1027,21.103437754614205
1028,21.103185424354088
1029,21.10252140262537
2,2, 1, 2, 0,10, 0.00,60.00,Monday
8,30616410.848360017
2033,73424016.97349471
2,2, 1, 2, 0,10, 0.00,60.00,Monday
1015,7.200122546461483
1016,7.199971287739462
1017,9.57226822137247
1018,7.200147260556973
1019,7.199682051785167
1020,7.200428413210217
1021,15.558660801808244
1022,15.559031211535448
1023,15.675980364591778
1024,15.559986876405574
1025,15.558928361899074
1026,15.559159018168252
1027,21.10284946320489
1028,21.103340672185496
1029,21.103078338794774
2,2, 1, 2, 0,11, 0.00,60.00,Monday
8,28637638.54976215
2033,59516630.55763603
2,2, 1, 2, 0,11, 0.00,60.00,Monday
1015,7.416192861542566
1016,7.199755709366407
1017,9.862286587976667
1018,7.2001120757563095
1019,7.1998843722304855
1020,7.200034041228104
1021,15.55884372121771
1022,15.559351173107618
1023,15.900604457902855
1024,15.559521469770873
1025,15.559510901631592
1026,15.559902428629671
1027,21.10345520900776
1028,21.102547445849233
1029,21.102581180142728
2,2, 1, 2, 0,12, 0.00,60.00,Monday
8,26963613.873229112
2033,53220945.81351496
2,2, 1, 2, 0,12, 0.00,60.00,Monday
1015,7.984042289591208
1016,7.2000164887641915
1017,10.016444434467893
1018,7.199755197767166
1019,7.200049820345574
1020,7.20043177416022
1021,15.559392502979218
1022,15.559086602848572
1023,16.07375497818273
1024,15.559381413949946
1025,15.55949670893164
1026,15.559994676575183
1027,21.102122584827278
1028,21.10158993273636
1029,21.10185318564549
2,2, 1, 2, 0,13, 0.00,60.00,Monday
8,21674627.217843484
2033,52421005.37564053
2,2, 1, 2, 0,13, 0.00,60.00,Monday
1015,8.39574755062159
1016,7.20032282308659
1017,10.216053517207621
1018,7.1995851233450825
1019,7.200039828726984
1020,7.200990985724234
1021,15.559131389735992
1022,15.559038398631408
1023,16.259176826359344
1024,15.559421042647635
1025,15.559439131387713
1026,15.560027631396949
1027,21.101655268901467
1028,21.101473282470245
1029,21.10177816318125
2,2, 1, 2, 0,14, 0.00,60.00,Monday
8,28380971.440348454
2033,50194862.64603778
2,2, 1, 2, 0,14, 0.00,60.00,Monday
1015,8.660987159447483
1016,7.199795698522382
1017,10.45228961248212
1018,7.200195056734178
1019,7.2000496680132295
1020,7.200330551205363
1021,15.55954787912448
1022,15.558800577648976
1023,16.38543698473426
1024,15.559317263417753
1025,15.559195785346027
1026,15.56000062964004
1027,21.10139160489791
1028,21.102505448378928
1029,21.10362856967669
2,2, 1, 2, 0,15, 0.00,60.00,Monday
8,27367597.416609183
2033,54630120.36078241
2,2, 1, 2, 0,15, 0.00,60.00,Monday
1015,8.45094422327054
1016,7.200259119378895
1017,10.597654226348547
1018,7.199640663111731
1019,7.200007284901934
1020,7.20066538281343
1021,15.559366009879568
1022,15.559181753080303
1023,16.441837084750276
1024,15.559935350658757
1025,15.559380151116523
1026,15.558537446612604
1027,21.101466998117104
1028,21.102402213976166
1029,21.104197754519042
2,2, 1, 2, 0,16, 0.00,60.00,Monday
8,27553982.323884584
2033,65606692.05922261
2,2, 1, 2, 0,16, 0.00,60.00,Monday
1015,7.790620283925762
1016,7.199649873323951
1017,10.568638085308734
1018,7.19972583600706
1019,7.200053803923172
1020,7.199870267761664
1021,15.559457708310891
1022,15.558815106344237
1023,16.43473668789268
1024,15.559998503366867
1025,15.558994585110218
1026,15.559370109288249
1027,21.101746771028836
1028,21.101799959517976
1029,21.10186946567933
2,2, 1, 2, 0,17, 0.00,60.00,Monday
8,28594984.79924329
2033,69902268.2596167
2,2, 1, 2, 0,17, 0.00,60.00,Monday
1015,7.422655111629955
1016,7.19949232548387
1017,10.502574343815873
1018,7.2004501223896344
1019,7.199908688436647
1020,7.201281021150102
1021,15.559559557521826
1022,15.558809564784475
1023,16.387664399522233
1024,15.559999924010286
1025,15.558854872203838
1026,15.559350738986602
1027,21.09965319817632
1028,21.099751250728325
1029,21.100166727207643
2,2, 1, 2, 0,18, 0.00,60.00,Monday
8,17067342.473257348
2033,78026337.0877075
2,2, 1, 2, 0,18, 0.00,60.00,Monday
1015,7.200271205206649
1016,7.200769275325478
1017,10.248412429842405
1018,7.2005056233955065
1019,7.200721844223248
1020,7.200397259746404
1021,15.558181892616224
1022,15.559073535495914
1023,16.177365094631504
1024,15.559372783640255
1025,15.55898665333409
1026,15.559428310869814
1027,21.099915728326927
1028,21.099953693037648
1029,21.09821068484781
2,2, 1, 2, 0,19, 0.00,60.00,Monday
8,11246658.394798541
2033,63884970.37223415
2,2, 1, 2, 0,19, 0.00,60.00,Monday
1015,7.199987417130327
1016,7.199844485136986
1017,10.049930316965176
1018,7.200009040320922
1019,7.199997662838493
1020,7.199813377759922
1021,15.559817449306285
1022,15.559998159009462
1023,15.978633541973819
1024,15.559965983140073
1025,15.559892061704808
1026,15.55999883855993
1027,15.952242659428471
1028,17.25874311528077
1029,15.924238152976221
2,2, 1, 2, 0,20, 0.00,60.00,Monday
8,11232704.828803694
2033,72520179.49465384
2,2, 1, 2, 0,20, 0.00,60.00,Monday
1015,7.199985461364071
1016,7.2002028199766634
1017,9.852842488229468
1018,7.200202956542456
1019,7.200050857294177
1020,7.199724026649427
1021,15.55970506160976
1022,15.559999985733214
1023,15.74468322801955
1024,15.559999741493886
1025,15.55983047806571
1026,15.559999992235742
1027,15.602342480092116
1028,15.875218157321342
1029,15.602247326899885
2,2, 1, 2, 0,21, 0.00,60.00,Monday
8,12785091.021781486
2033,81004022.16560927
2,2, 1, 2, 0,21, 0.00,60.00,Monday
1015,7.200556586741928
1016,7.202909201349262
1017,9.59731048638616
1018,7.1990010173559735
1019,7.201068031966634
1020,7.2020362785526775
1021,15.55950017395891
1022,15.560000024765166
1023,15.560756707243957
1024,15.560000044072938
1025,15.559982626774524
1026,15.56000001851426
1027,15.599067868485418
1028,15.599475011058582
1029,15.5980258769974
2,2, 1, 2, 0,22, 0.00,60.00,Monday
8,11692015.731319012
2033,87909126.82792209
2,2, 1, 2, 0,22, 0.00,60.00,Monday
1015,7.198802111836616
1016,7.199408586470391
1017,9.363762013140187
1018,7.199444953793279
1019,7.198706303610733
1020,7.200463364502045
1021,15.559948338667484
1022,15.56000002073467
1023,15.559895824621963
1024,15.560000036867228
1025,15.558647320496172
1026,15.560000015693971
1027,15.598769097564345
1028,15.599346542010611
1029,15.598957491742572
2,2, 1, 2, 0,23, 0.00,60.00,Monday
8,11788565.014598403
2033,93754203.1529246
2,2, 1, 2, 0,23, 0.00,60.00,Monday
1015,7.199442272814943
1016,7.197253407156922
1017,9.202451641871566
1018,7.199106488227044
1019,7.198547540103446
1020,7.202940190581699
1021,15.558359219410974
1022,15.560000012584775
1023,15.559857652775264
1024,15.560000022892032
1025,15.558852738833838
1026,15.55874657154237
1027,15.599098966511143
1028,15.599294959842652
1029,15.59774446082861
2,2, 1, 2, 0,24, 0.00,60.00,Monday
8,13053381.583126657
2033,92213952.28901467
2,2, 1, 2, 0,24, 0.00,60.00,Monday
1015,7.200963141897008
1016,7.201514073002146
1017,9.104189323258103
1018,7.2004536728253266
1019,7.20012689298952
1020,7.200502344643437
1021,15.558149094695539
1022,15.559999990933168
1023,15.559781384635968
1024,15.559999991847597
1025,15.558814490979833
1026,15.559818442383747
1027,15.597312741441879
1028,15.59875060375252
1029,15.597732409957239
2,3, 1, 3, 0, 1, 0.00,60.00,Tuesday
8,10779400.401619196
2033,100106711.27406314
2,3, 1, 3, 0, 1, 0.00,60.00,Tuesday
1015,7.201536939330807
1016,7.2009956901827845
1017,9.035994324434883
1018,7.199497129287862
1019,7.200303380693461
1020,7.19751781003003
1021,15.558634722186861
1022,15.558695278662936
1023,15.559856515070791
1024,15.560000008820843
1025,15.559131787555117
1026,15.55895915040585
1027,15.59753624865886
1028,15.598944710463867
1029,15.598072536431111
2,3, 1, 3, 0, 2, 0.00,60.00,Tuesday
8,10832982.101391766
2033,104198596.31154975
2,3, 1, 3, 0, 2, 0.00,60.00,Tuesday
1015,7.2005388128184
1016,7.200585579693599
1017,8.977865106811837
1018,7.202238595557701
1019,7.199577664559721
1020,7.201560646118265
1021,15.558889180116461
1022,15.558700919003796
1023,15.55959205453586
1024,15.560000016626855
1025,15.559282684794242
1026,15.558978675058361
1027,15.597801165270647
1028,15.599103617666573
1029,15.598280739455166
2,3, 1, 3, 0, 3, 0.00,60.00,Tuesday
8,12144896.166651703
2033,108638517.92245747
2,3, 1, 3, 0, 3, 0.00,60.00,Tuesday
1015,7.200559016578355
1016,7.203718892903522
1017,8.925964539287591
1018,7.2022364757833905
1019,7.197835038273731
1020,7.202836141735859
1021,15.559100441330466
1022,15.558897992016862
1023,15.559672822664083
1024,15.55934381625241
1025,15.55941215452925
1026,15.559130733144295
1027,15.59804112600477
1028,15.599214153927623
1029,15.598454253013738
2,3, 1, 3, 0, 4, 0.00,60.00,Tuesday
8,10833348.890587736
2033,103252106.61072224
2,3, 1, 3, 0, 4, 0.00,60.00,Tuesday
1015,7.199860857138376
1016,7.203312245320982
1017,8.888346534917112
1018,7.199636757291902
1019,7.200177090395982
1020,7.199830179869669
1021,15.558929960054115
1022,15.558654803478367
1023,15.559718387567541
1024,15.559928163636442
1025,15.559279357662467
1026,15.558920564184048
1027,15.597992621491487
1028,15.599289968774983
1029,15.598400605146605
2,3, 1, 3, 0, 5, 0.00,60.00,Tuesday
8,10839867.523614543
2033,103346249.94364329
2,3, 1, 3, 0, 5, 0.00,60.00,Tuesday
1015,7.198585898146013
1016,7.196902418571206
1017,8.869317964847646
1018,7.198538151276598
1019,7.199596661084654
1020,7.1968933971908395
1021,15.558937311925298
1022,15.558629256651102
1023,15.55974084180129
1024,15.559992133601042
1025,15.559270822975861
1026,15.5588880573331
1027,15.598044523596148
1028,15.599340561075392
1029,15.598427000422578
2,3, 1, 3, 0, 6, 0.00,60.00,Tuesday
8,12029694.343863085
2033,96792060.01102887
2,3, 1, 3, 0, 6, 0.00,60.00,Tuesday
1015,7.199960324356403
1016,7.2007486432755305
1017,8.870629632378053
1018,7.199922745531227
1019,7.200055012615856
1020,7.198623373626966
1021,15.558641623469372
1022,15.559801596287613
1023,15.559740474232001
1024,15.559999132229828
1025,15.559050426484225
1026,15.558535626047824
1027,15.597907548228537
1028,15.599371247278464
1029,15.5983100784062
2,3, 1, 3, 0, 7, 0.00,60.00,Tuesday
8,15972307.306237299
2033,121282307.7525104
2,3, 1, 3, 0, 7, 0.00,60.00,Tuesday
1015,7.19995932908167
1016,7.200229304920809
1017,8.874999834343763
1018,7.200019726815153
1019,7.200114619741637
1020,7.200199620473016
1021,15.559724565762412
1022,15.55958128723792
1023,15.55995403771602
1024,15.55999999586448
1025,15.559799786731748
1026,15.559644474089755
1027,21.054154696604133
1028,21.040627789992325
1029,21.05432499187147
2,3, 1, 3, 0, 8, 0.00,60.00,Tuesday
8,18682646.15332946
2033,117580743.97103515
2,3, 1, 3, 0, 8, 0.00,60.00,Tuesday
1015,7.199772381283864
1016,7.200276372137413
1017,8.987251021150284
1018,7.200959789287266
1019,7.200236832948088
1020,7.199299748425465
1021,15.558485310016126
1022,15.559938824472555
1023,15.55987221525976
1024,15.559999975704667
1025,15.558888263455088
1026,15.558754416823666
1027,21.10250446059443
1028,21.101851208729098
1029,21.104463364463136
2,3, 1, 3, 0, 9, 0.00,60.00,Tuesday
8,29253589.74280154
2033,113016602.55666606
2,3, 1, 3, 0, 9, 0.00,60.00,Tuesday
1015,7.200256968582106
1016,7.198422921575823
1017,9.273943701451056
1018,7.198933670379754
1019,7.200800233082525
1020,7.199048793226068
1021,15.559934402417799
1022,15.55878807687111
1023,15.558191988627843
1024,15.560000000236926
1025,15.55875050719328
1026,15.558893809015885
1027,21.103172226335108
1028,21.102582266521473
1029,21.103891997124805
2,3, 1, 3, 0,10, 0.00,60.00,Tuesday
8,31051497.972883523
2033,108412630.04299393
2,3, 1, 3, 0,10, 0.00,60.00,Tuesday
1015,7.2000323576254495
1016,7.199149100097022
1017,9.63750573375893
1018,7.199398731296377
1019,7.200257408424072
1020,7.200473633656709
1021,15.55998879951673
1022,15.558578821597084
1023,15.728593861903583
1024,15.559991078552361
1025,15.559936049536429
1026,15.558773316004448
1027,21.104207379542544
1028,21.10270542920535
1029,21.10254111354418
2,3, 1, 3, 0,11, 0.00,60.00,Tuesday
8,27939211.649740767
2033,98850414.37858176
2,3, 1, 3, 0,11, 0.00,60.00,Tuesday
1015,7.199884192575414
1016,7.198971546617161
1017,9.894432082635824
1018,7.20079416777793
1019,7.199975854628212
1020,7.200290103971971
1021,15.559426669320542
1022,15.55980198689776
1023,15.9481599087023
1024,15.55999984918736
1025,15.559999031013671
1026,15.55982881633178
1027,21.103281285078264
1028,21.10212123863388
1029,21.10375194599187
2,3, 1, 3, 0,12, 0.00,60.00,Tuesday
8,27445046.258349035
2033,84901301.1810893
2,3, 1, 3, 0,12, 0.00,60.00,Tuesday
1015,7.199931485779998
1016,7.200657874451722
1017,10.099432908247007
1018,7.201379672924104
1019,7.200495624717428
1020,7.197779273750617
1021,15.558576015293744
1022,15.559377526736217
1023,16.140254476384246
1024,15.559465362342914
1025,15.559392057357154
1026,15.559976180331653
1027,21.102173992176954