Program Version,EnergyPlus, Version 23.1.0-87ed9199d4, YMD=2023.06.01 10:48
1,5,Environment Title[],Latitude[deg],Longitude[deg],Time Zone[],Elevation[m]
2,8,Day of Simulation[],Month[],Day of Month[],DST Indicator[1=yes 0=no],Hour[],StartMinute[],EndMinute[],DayType
3,5,Cumulative Day of Simulation[],Month[],Day of Month[],DST Indicator[1=yes 0=no],DayType  ! When Daily Report Variables Requested
4,2,Cumulative Days of Simulation[],Month[]  ! When Monthly Report Variables Requested
5,1,Cumulative Days of Simulation[] ! When Run Period Report Variables Requested
6,1,Calendar Year of Simulation[] ! When Annual Report Variables Requested
8,1,Electricity:Facility [J] !TimeStep
595,1,NaturalGas:Facility [J] !TimeStep
End of Data Dictionary
1,KODIAK ANN CLG .4% CONDNS DB=>MWB HVAC Sizing Pass 1,  57.75,-152.50,  -9.00,   5.00
2,1, 8,21, 0, 1, 0.00,10.00,SummerDesignDay
8,3848342.176028608
595,0.0
2,1, 8,21, 0, 1,10.00,20.00,SummerDesignDay
8,3848342.176028608
595,0.0
2,1, 8,21, 0, 1,20.00,30.00,SummerDesignDay
8,3848342.176028608
595,0.0
2,1, 8,21, 0, 1,30.00,40.00,SummerDesignDay
8,3848342.176028608
595,0.0
2,1, 8,21, 0, 1,40.00,50.00,SummerDesignDay
8,3848342.176028608
595,0.0
2,1, 8,21, 0, 1,50.00,60.00,SummerDesignDay
8,3848342.176028608
595,0.0
2,1, 8,21, 0, 2, 0.00,10.00,SummerDesignDay
8,3848342.176028608
595,0.0
2,1, 8,21, 0, 2,10.00,20.00,SummerDesignDay
8,3848342.176028608
595,0.0
2,1, 8,21, 0, 2,20.00,30.00,SummerDesignDay
8,3848342.176028608
595,0.0
2,1, 8,21, 0, 2,30.00,40.00,SummerDesignDay
8,3848342.176028608
595,180519.13102681632
2,1, 8,21, 0, 2,40.00,50.00,SummerDesignDay
8,3848342.176028608
595,210123.18065141767
2,1, 8,21, 0, 2,50.00,60.00,SummerDesignDay
8,3848342.176028608
595,210123.18065141767
2,1, 8,21, 0, 3, 0.00,10.00,SummerDesignDay
8,3848342.176028608
595,210123.18065141767
2,1, 8,21, 0, 3,10.00,20.00,SummerDesignDay
8,3848342.176028608
595,210123.18065141767
2,1, 8,21, 0, 3,20.00,30.00,SummerDesignDay
8,3848342.176028608
595,210123.18065141767
2,1, 8,21, 0, 3,30.00,40.00,SummerDesignDay
8,3848342.176028608
595,210123.18065141767
2,1, 8,21, 0, 3,40.00,50.00,SummerDesignDay
8,3848342.176028608
595,210123.18065141767
2,1, 8,21, 0, 3,50.00,60.00,SummerDesignDay
8,3848342.176028608
595,210123.18065141767
2,1, 8,21, 0, 4, 0.00,10.00,SummerDesignDay
8,3848342.176028608
595,210123.18065141767
2,1, 8,21, 0, 4,10.00,20.00,SummerDesignDay
8,3848342.176028608
595,210123.18065141767
2,1, 8,21, 0, 4,20.00,30.00,SummerDesignDay
8,3848342.176028608
595,210123.18065141767
2,1, 8,21, 0, 4,30.00,40.00,SummerDesignDay
8,3848342.176028608
595,210123.18065141767
2,1, 8,21, 0, 4,40.00,50.00,SummerDesignDay
8,3848342.176028608
595,210123.18065141767
2,1, 8,21, 0, 4,50.00,60.00,SummerDesignDay
8,3848342.176028608
595,210123.18065141767
2,1, 8,21, 0, 5, 0.00,10.00,SummerDesignDay
8,3848342.176028608
595,210123.18065141767
2,1, 8,21, 0, 5,10.00,20.00,SummerDesignDay
8,3848342.176028608
595,210123.18065141767
2,1, 8,21, 0, 5,20.00,30.00,SummerDesignDay
8,3848342.176028608
595,210123.18065141767
2,1, 8,21, 0, 5,30.00,40.00,SummerDesignDay
8,3848342.176028608
595,210123.18065141767
2,1, 8,21, 0, 5,40.00,50.00,SummerDesignDay
8,3848342.176028608
595,210123.18065141767
2,1, 8,21, 0, 5,50.00,60.00,SummerDesignDay
8,5103048.70877465
595,210123.18065141767
2,1, 8,21, 0, 6, 0.00,10.00,SummerDesignDay
8,3848342.176028608
595,210123.18065141767
2,1, 8,21, 0, 6,10.00,20.00,SummerDesignDay
8,3848342.176028608
595,210123.18065141767
2,1, 8,21, 0, 6,20.00,30.00,SummerDesignDay
8,3848342.176028608
595,210123.18065141767
2,1, 8,21, 0, 6,30.00,40.00,SummerDesignDay
8,3848342.176028608
595,210123.18065141767
2,1, 8,21, 0, 6,40.00,50.00,SummerDesignDay
8,3848342.176028608
595,210123.18065141767
2,1, 8,21, 0, 6,50.00,60.00,SummerDesignDay
8,3486596.176028608
595,210123.18065141767
2,1, 8,21, 0, 7, 0.00,10.00,SummerDesignDay
8,4021233.8008598676
595,210123.18065141767
2,1, 8,21, 0, 7,10.00,20.00,SummerDesignDay
8,3711073.524559679
595,210123.18065141767
2,1, 8,21, 0, 7,20.00,30.00,SummerDesignDay
8,3942528.4046626748
595,210123.18065141767
2,1, 8,21, 0, 7,30.00,40.00,SummerDesignDay
8,3911525.954001999
595,210123.18065141767
2,1, 8,21, 0, 7,40.00,50.00,SummerDesignDay
8,3906400.444102989
595,210123.18065141767
2,1, 8,21, 0, 7,50.00,60.00,SummerDesignDay
8,3910876.3055825825
595,210123.18065141767
2,1, 8,21, 0, 8, 0.00,10.00,SummerDesignDay
8,3922038.4665955286
595,210123.18065141767
2,1, 8,21, 0, 8,10.00,20.00,SummerDesignDay
8,3933981.976247928
595,210123.18065141767
2,1, 8,21, 0, 8,20.00,30.00,SummerDesignDay
8,3946673.7338098227
595,210123.18065141767
2,1, 8,21, 0, 8,30.00,40.00,SummerDesignDay
8,3959917.3905771156
595,210123.18065141767
2,1, 8,21, 0, 8,40.00,50.00,SummerDesignDay
8,3974092.0114243994
595,210123.18065141767
2,1, 8,21, 0, 8,50.00,60.00,SummerDesignDay
8,3989549.640074194
595,210123.18065141767
2,1, 8,21, 0, 9, 0.00,10.00,SummerDesignDay
8,4007358.8927022507
595,210123.18065141767
2,1, 8,21, 0, 9,10.00,20.00,SummerDesignDay
8,4026361.160115575
595,210123.18065141767
2,1, 8,21, 0, 9,20.00,30.00,SummerDesignDay
8,4046145.1558303977
595,210123.18065141767
2,1, 8,21, 0, 9,30.00,40.00,SummerDesignDay
8,4066439.281053998
595,210123.18065141767
2,1, 8,21, 0, 9,40.00,50.00,SummerDesignDay
8,4086966.4865957983
595,210123.18065141767
2,1, 8,21, 0, 9,50.00,60.00,SummerDesignDay
8,4107689.731746906
595,210123.18065141767
2,1, 8,21, 0,10, 0.00,10.00,SummerDesignDay
8,4127195.2154036285
595,210123.18065141767
2,1, 8,21, 0,10,10.00,20.00,SummerDesignDay
8,4146597.1280150544
595,210123.18065141767
2,1, 8,21, 0,10,20.00,30.00,SummerDesignDay
8,4165823.1041681403
595,210123.18065141767
2,1, 8,21, 0,10,30.00,40.00,SummerDesignDay
8,4184827.3140605744
595,210123.18065141767
2,1, 8,21, 0,10,40.00,50.00,SummerDesignDay
8,5458274.405346985
595,210123.18065141767
2,1, 8,21, 0,10,50.00,60.00,SummerDesignDay
8,4222065.355304806
595,210123.18065141767
2,1, 8,21, 0,11, 0.00,10.00,SummerDesignDay
8,4239000.466082462
595,210123.18065141767
2,1, 8,21, 0,11,10.00,20.00,SummerDesignDay
8,4255625.45682253
595,210123.18065141767
2,1, 8,21, 0,11,20.00,30.00,SummerDesignDay
8,4271888.395265007
595,210123.18065141767
2,1, 8,21, 0,11,30.00,40.00,SummerDesignDay
8,4287235.376200554
595,210123.18065141767
2,1, 8,21, 0,11,40.00,50.00,SummerDesignDay
8,4302622.584389174
595,210123.18065141767
2,1, 8,21, 0,11,50.00,60.00,SummerDesignDay
8,4317702.144972223
595,210123.18065141767
2,1, 8,21, 0,12, 0.00,10.00,SummerDesignDay
8,4329124.408093347
595,210123.18065141767
2,1, 8,21, 0,12,10.00,20.00,SummerDesignDay
8,4340066.687133726
595,210123.18065141767
2,1, 8,21, 0,12,20.00,30.00,SummerDesignDay
8,4350458.176805892
595,210123.18065141767
2,1, 8,21, 0,12,30.00,40.00,SummerDesignDay
8,4360263.26354055
595,210123.18065141767
2,1, 8,21, 0,12,40.00,50.00,SummerDesignDay
8,4369461.524344654
595,210123.18065141767
2,1, 8,21, 0,12,50.00,60.00,SummerDesignDay
8,4378053.356012317
595,210123.18065141767
2,1, 8,21, 0,13, 0.00,10.00,SummerDesignDay
8,4384726.69213045
595,210123.18065141767
2,1, 8,21, 0,13,10.00,20.00,SummerDesignDay
8,4390875.221554125
595,210123.18065141767
2,1, 8,21, 0,13,20.00,30.00,SummerDesignDay
8,4396605.100767113
595,210123.18065141767
2,1, 8,21, 0,13,30.00,40.00,SummerDesignDay
8,4402083.780170397
595,210123.18065141767
2,1, 8,21, 0,13,40.00,50.00,SummerDesignDay
8,4407519.877653201
595,210123.18065141767
2,1, 8,21, 0,13,50.00,60.00,SummerDesignDay
8,4413183.922238174
595,210123.18065141767
2,1, 8,21, 0,14, 0.00,10.00,SummerDesignDay
8,4417343.593388248
595,210123.18065141767
2,1, 8,21, 0,14,10.00,20.00,SummerDesignDay
8,4422616.810956704
595,210123.18065141767
2,1, 8,21, 0,14,20.00,30.00,SummerDesignDay
8,4428961.640771087
595,210123.18065141767
2,1, 8,21, 0,14,30.00,40.00,SummerDesignDay
8,4436069.354651177
595,210123.18065141767
2,1, 8,21, 0,14,40.00,50.00,SummerDesignDay
8,4443597.4394125445
595,210123.18065141767
2,1, 8,21, 0,14,50.00,60.00,SummerDesignDay
8,4451360.527778005
595,210123.18065141767
2,1, 8,21, 0,15, 0.00,10.00,SummerDesignDay
8,4455676.058621592
595,210123.18065141767
2,1, 8,21, 0,15,10.00,20.00,SummerDesignDay
8,4459787.371793811
595,210123.18065141767
2,1, 8,21, 0,15,20.00,30.00,SummerDesignDay
8,4463553.382947855
595,210123.18065141767
2,1, 8,21, 0,15,30.00,40.00,SummerDesignDay
8,5063560.959667887
595,210123.18065141767
2,1, 8,21, 0,15,40.00,50.00,SummerDesignDay
8,5127555.120299079
595,210123.18065141767
2,1, 8,21, 0,15,50.00,60.00,SummerDesignDay
8,4472168.879667751
595,210123.18065141767
2,1, 8,21, 0,16, 0.00,10.00,SummerDesignDay
8,4469896.836820933
595,210123.18065141767
2,1, 8,21, 0,16,10.00,20.00,SummerDesignDay
8,4467107.500559135
595,210123.18065141767
2,1, 8,21, 0,16,20.00,30.00,SummerDesignDay
8,4463752.622094662
595,210123.18065141767
2,1, 8,21, 0,16,30.00,40.00,SummerDesignDay
8,4459835.289680266
595,210123.18065141767
2,1, 8,21, 0,16,40.00,50.00,SummerDesignDay
8,4455913.712388649
595,210123.18065141767
2,1, 8,21, 0,16,50.00,60.00,SummerDesignDay
8,4451040.618427516
595,210123.18065141767
2,1, 8,21, 0,17, 0.00,10.00,SummerDesignDay
8,4444120.376123828
595,210123.18065141767
2,1, 8,21, 0,17,10.00,20.00,SummerDesignDay
8,4436527.6872294685
595,210123.18065141767
2,1, 8,21, 0,17,20.00,30.00,SummerDesignDay
8,4428247.890484879
595,210123.18065141767
2,1, 8,21, 0,17,30.00,40.00,SummerDesignDay
8,4419270.811305319
595,210123.18065141767
2,1, 8,21, 0,17,40.00,50.00,SummerDesignDay
8,4409589.891830507
595,210123.18065141767
2,1, 8,21, 0,17,50.00,60.00,SummerDesignDay
8,4399207.642601803
595,210123.18065141767
2,1, 8,21, 0,18, 0.00,10.00,SummerDesignDay
8,4386801.603011555
595,210123.18065141767
2,1, 8,21, 0,18,10.00,20.00,SummerDesignDay
8,4373756.578332711
595,210123.18065141767
2,1, 8,21, 0,18,20.00,30.00,SummerDesignDay
8,4360088.509777833
595,210123.18065141767
2,1, 8,21, 0,18,30.00,40.00,SummerDesignDay
8,4345916.912641405
595,210123.18065141767
2,1, 8,21, 0,18,40.00,50.00,SummerDesignDay
8,4331367.761725755
595,210123.18065141767
2,1, 8,21, 0,18,50.00,60.00,SummerDesignDay
8,4316574.162149305
595,210123.18065141767
2,1, 8,21, 0,19, 0.00,10.00,SummerDesignDay
8,4298460.192674092
595,210123.18065141767
2,1, 8,21, 0,19,10.00,20.00,SummerDesignDay
8,4280277.85020499
595,210123.18065141767
2,1, 8,21, 0,19,20.00,30.00,SummerDesignDay
8,4262419.72550768
595,210123.18065141767
2,1, 8,21, 0,19,30.00,40.00,SummerDesignDay
8,4245022.987170792
595,210123.18065141767
2,1, 8,21, 0,19,40.00,50.00,SummerDesignDay
8,4228639.226138451
595,210123.18065141767
2,1, 8,21, 0,19,50.00,60.00,SummerDesignDay
8,4213021.913739742
595,210123.18065141767
2,1, 8,21, 0,20, 0.00,10.00,SummerDesignDay
8,4200247.992532542
595,210123.18065141767
2,1, 8,21, 0,20,10.00,20.00,SummerDesignDay
8,4187473.170048679
595,210123.18065141767
2,1, 8,21, 0,20,20.00,30.00,SummerDesignDay
8,4174379.0278862817
595,210123.18065141767
2,1, 8,21, 0,20,30.00,40.00,SummerDesignDay
8,5415365.900577408
595,210123.18065141767
2,1, 8,21, 0,20,40.00,50.00,SummerDesignDay
8,4146057.936243904
595,210123.18065141767
2,1, 8,21, 0,20,50.00,60.00,SummerDesignDay
8,4129702.489464363
595,210123.18065141767
2,1, 8,21, 0,21, 0.00,10.00,SummerDesignDay
8,4113671.1990264356
595,210123.18065141767
2,1, 8,21, 0,21,10.00,20.00,SummerDesignDay
8,4095110.7669499773
595,210123.18065141767
2,1, 8,21, 0,21,20.00,30.00,SummerDesignDay
8,4074466.1619834327
595,210123.18065141767
2,1, 8,21, 0,21,30.00,40.00,SummerDesignDay
8,4598528.669530201
595,210123.18065141767
2,1, 8,21, 0,21,40.00,50.00,SummerDesignDay
8,4581865.433936774
595,210123.18065141767
2,1, 8,21, 0,21,50.00,60.00,SummerDesignDay
8,4568118.341159574
595,210123.18065141767
2,1, 8,21, 0,22, 0.00,10.00,SummerDesignDay
8,4556197.676570831
595,210123.18065141767
2,1, 8,21, 0,22,10.00,20.00,SummerDesignDay
8,4545479.089902813
595,210123.18065141767
2,1, 8,21, 0,22,20.00,30.00,SummerDesignDay
8,4535594.692150255
595,210123.18065141767
2,1, 8,21, 0,22,30.00,40.00,SummerDesignDay
8,4526313.888633903
595,210123.18065141767
2,1, 8,21, 0,22,40.00,50.00,SummerDesignDay
8,4517475.3874711245
595,210123.18065141767
2,1, 8,21, 0,22,50.00,60.00,SummerDesignDay
8,4508964.571794096
595,210123.18065141767
2,1, 8,21, 0,23, 0.00,10.00,SummerDesignDay
8,4033796.176028608
595,210123.18065141767
2,1, 8,21, 0,23,10.00,20.00,SummerDesignDay
8,4033796.176028608
595,210123.18065141767
2,1, 8,21, 0,23,20.00,30.00,SummerDesignDay
8,4033796.176028608
595,210123.18065141767
2,1, 8,21, 0,23,30.00,40.00,SummerDesignDay
8,4033796.176028608
595,210123.18065141767
2,1, 8,21, 0,23,40.00,50.00,SummerDesignDay
8,4033796.176028608
595,210123.18065141767
2,1, 8,21, 0,23,50.00,60.00,SummerDesignDay
8,4033796.176028608
595,210123.18065141767
2,1, 8,21, 0,24, 0.00,10.00,SummerDesignDay
8,4033796.176028608
595,210123.18065141767
2,1, 8,21, 0,24,10.00,20.00,SummerDesignDay
8,4033796.176028608
595,210123.18065141767
2,1, 8,21, 0,24,20.00,30.00,SummerDesignDay
8,4033796.176028608
595,210123.18065141767
2,1, 8,21, 0,24,30.00,40.00,SummerDesignDay
8,4033796.176028608
595,210123.18065141767
2,1, 8,21, 0,24,40.00,50.00,SummerDesignDay
8,4033796.176028608
595,210123.18065141767
2,1, 8,21, 0,24,50.00,60.00,SummerDesignDay
8,4033796.176028608
595,210123.18065141767
1,KODIAK ANN CLG .4% CONDNS WB=>MDB HVAC Sizing Pass 1,  57.75,-152.50,  -9.00,   5.00
2,1, 8,21, 0, 1, 0.00,10.00,SummerDesignDay
8,3848342.176028608
595,0.0
2,1, 8,21, 0, 1,10.00,20.00,SummerDesignDay
8,3848342.176028608
595,0.0
2,1, 8,21, 0, 1,20.00,30.00,SummerDesignDay
8,3848342.176028608
595,0.0
2,1, 8,21, 0, 1,30.00,40.00,SummerDesignDay
8,3848342.176028608
595,0.0
2,1, 8,21, 0, 1,40.00,50.00,SummerDesignDay
8,3848342.176028608
595,0.0
2,1, 8,21, 0, 1,50.00,60.00,SummerDesignDay
8,3848342.176028608
595,0.0
2,1, 8,21, 0, 2, 0.00,10.00,SummerDesignDay
8,3848342.176028608
595,0.0
2,1, 8,21, 0, 2,10.00,20.00,SummerDesignDay
8,3848342.176028608
595,0.0
2,1, 8,21, 0, 2,20.00,30.00,SummerDesignDay
8,3848342.176028608
595,0.0
2,1, 8,21, 0, 2,30.00,40.00,SummerDesignDay
8,3848342.176028608
595,180519.13102681632
2,1, 8,21, 0, 2,40.00,50.00,SummerDesignDay
8,3848342.176028608
595,210123.18065141767
2,1, 8,21, 0, 2,50.00,60.00,SummerDesignDay
8,3848342.176028608
595,210123.18065141767
2,1, 8,21, 0, 3, 0.00,10.00,SummerDesignDay
8,3848342.176028608
595,210123.18065141767
2,1, 8,21, 0, 3,10.00,20.00,SummerDesignDay
8,3848342.176028608
595,210123.18065141767
2,1, 8,21, 0, 3,20.00,30.00,SummerDesignDay
8,3848342.176028608
595,210123.18065141767
2,1, 8,21, 0, 3,30.00,40.00,SummerDesignDay
8,3848342.176028608
595,210123.18065141767
2,1, 8,21, 0, 3,40.00,50.00,SummerDesignDay
8,3848342.176028608
595,210123.18065141767
2,1, 8,21, 0, 3,50.00,60.00,SummerDesignDay
8,3848342.176028608
595,210123.18065141767
2,1, 8,21, 0, 4, 0.00,10.00,SummerDesignDay
8,3848342.176028608
595,210123.18065141767
2,1, 8,21, 0, 4,10.00,20.00,SummerDesignDay
8,3848342.176028608
595,210123.18065141767
2,1, 8,21, 0, 4,20.00,30.00,SummerDesignDay
8,3848342.176028608
595,210123.18065141767
2,1, 8,21, 0, 4,30.00,40.00,SummerDesignDay
8,3848342.176028608
595,210123.18065141767
2,1, 8,21, 0, 4,40.00,50.00,SummerDesignDay
8,3848342.176028608
595,210123.18065141767
2,1, 8,21, 0, 4,50.00,60.00,SummerDesignDay
8,3848342.176028608
595,210123.18065141767
2,1, 8,21, 0, 5, 0.00,10.00,SummerDesignDay
8,3848342.176028608
595,210123.18065141767
2,1, 8,21, 0, 5,10.00,20.00,SummerDesignDay
8,3848342.176028608
595,210123.18065141767
2,1, 8,21, 0, 5,20.00,30.00,SummerDesignDay
8,3848342.176028608
595,210123.18065141767
2,1, 8,21, 0, 5,30.00,40.00,SummerDesignDay
8,3848342.176028608
595,210123.18065141767
2,1, 8,21, 0, 5,40.00,50.00,SummerDesignDay
8,3848342.176028608
595,210123.18065141767
2,1, 8,21, 0, 5,50.00,60.00,SummerDesignDay
8,5103048.70877465
595,210123.18065141767
2,1, 8,21, 0, 6, 0.00,10.00,SummerDesignDay
8,3848342.176028608
595,210123.18065141767
2,1, 8,21, 0, 6,10.00,20.00,SummerDesignDay
8,3848342.176028608
595,210123.18065141767
2,1, 8,21, 0, 6,20.00,30.00,SummerDesignDay
8,3848342.176028608
595,210123.18065141767
2,1, 8,21, 0, 6,30.00,40.00,SummerDesignDay
8,3848342.176028608
595,210123.18065141767
2,1, 8,21, 0, 6,40.00,50.00,SummerDesignDay
8,3848342.176028608
595,210123.18065141767
2,1, 8,21, 0, 6,50.00,60.00,SummerDesignDay
8,3486596.176028608
595,210123.18065141767
2,1, 8,21, 0, 7, 0.00,10.00,SummerDesignDay
8,3886938.633422858
595,210123.18065141767
2,1, 8,21, 0, 7,10.00,20.00,SummerDesignDay
8,3626750.0081399786
595,210123.18065141767
2,1, 8,21, 0, 7,20.00,30.00,SummerDesignDay
8,3861682.46392829
595,210123.18065141767
2,1, 8,21, 0, 7,30.00,40.00,SummerDesignDay
8,3816889.9697037605
595,210123.18065141767
2,1, 8,21, 0, 7,40.00,50.00,SummerDesignDay
8,3823173.810567379
595,210123.18065141767
2,1, 8,21, 0, 7,50.00,60.00,SummerDesignDay
8,3830456.032927373
595,210123.18065141767
2,1, 8,21, 0, 8, 0.00,10.00,SummerDesignDay
8,3843972.352057127
595,210123.18065141767
2,1, 8,21, 0, 8,10.00,20.00,SummerDesignDay
8,3857680.4460733654
595,210123.18065141767
2,1, 8,21, 0, 8,20.00,30.00,SummerDesignDay
8,3871712.2543019988
595,210123.18065141767
2,1, 8,21, 0, 8,30.00,40.00,SummerDesignDay
8,3886227.448301126
595,210123.18065141767
2,1, 8,21, 0, 8,40.00,50.00,SummerDesignDay
8,3901690.2878761264
595,210123.18065141767
2,1, 8,21, 0, 8,50.00,60.00,SummerDesignDay
8,3918374.397715608
595,210123.18065141767
2,1, 8,21, 0, 9, 0.00,10.00,SummerDesignDay
8,3937032.0730130393
595,210123.18065141767
2,1, 8,21, 0, 9,10.00,20.00,SummerDesignDay
8,3956894.216367878
595,210123.18065141767
2,1, 8,21, 0, 9,20.00,30.00,SummerDesignDay
8,3977421.299398211
595,210123.18065141767
2,1, 8,21, 0, 9,30.00,40.00,SummerDesignDay
8,3998265.028977925
595,210123.18065141767
2,1, 8,21, 0, 9,40.00,50.00,SummerDesignDay
8,4019489.750136966
595,210123.18065141767
2,1, 8,21, 0, 9,50.00,60.00,SummerDesignDay
8,4040769.652397218
595,210123.18065141767
2,1, 8,21, 0,10, 0.00,10.00,SummerDesignDay
8,4060256.0749952076
595,210123.18065141767
2,1, 8,21, 0,10,10.00,20.00,SummerDesignDay
8,4080527.636232408
595,210123.18065141767
2,1, 8,21, 0,10,20.00,30.00,SummerDesignDay
8,4100060.908773315
595,210123.18065141767
2,1, 8,21, 0,10,30.00,40.00,SummerDesignDay
8,4119489.0597515334
595,210123.18065141767
2,1, 8,21, 0,10,40.00,50.00,SummerDesignDay
8,5393295.395578506
595,210123.18065141767
2,1, 8,21, 0,10,50.00,60.00,SummerDesignDay
8,4157397.2609680155
595,210123.18065141767
2,1, 8,21, 0,11, 0.00,10.00,SummerDesignDay
8,4174576.883174381
595,210123.18065141767
2,1, 8,21, 0,11,10.00,20.00,SummerDesignDay
8,4191418.0736252083
595,210123.18065141767
2,1, 8,21, 0,11,20.00,30.00,SummerDesignDay
8,4207908.2294760095
595,210123.18065141767
2,1, 8,21, 0,11,30.00,40.00,SummerDesignDay
8,4223377.770687033
595,210123.18065141767
2,1, 8,21, 0,11,40.00,50.00,SummerDesignDay
8,4238895.764820735
595,210123.18065141767
2,1, 8,21, 0,11,50.00,60.00,SummerDesignDay
8,4254097.576967577
595,210123.18065141767
2,1, 8,21, 0,12, 0.00,10.00,SummerDesignDay
8,4265578.5433395505
595,210123.18065141767
2,1, 8,21, 0,12,10.00,20.00,SummerDesignDay
8,4276579.802068955
595,210123.18065141767
2,1, 8,21, 0,12,20.00,30.00,SummerDesignDay
8,4287032.220846187
595,210123.18065141767
2,1, 8,21, 0,12,30.00,40.00,SummerDesignDay
8,4296896.67304025
595,210123.18065141767
2,1, 8,21, 0,12,40.00,50.00,SummerDesignDay
8,4306149.224694474
595,210123.18065141767
2,1, 8,21, 0,12,50.00,60.00,SummerDesignDay
8,4314788.83162754
595,210123.18065141767
2,1, 8,21, 0,13, 0.00,10.00,SummerDesignDay
8,4321483.224993288
595,210123.18065141767
2,1, 8,21, 0,13,10.00,20.00,SummerDesignDay
8,4327666.27559856
595,210123.18065141767
2,1, 8,21, 0,13,20.00,30.00,SummerDesignDay
8,4333446.268803132
595,210123.18065141767
2,1, 8,21, 0,13,30.00,40.00,SummerDesignDay
8,4338984.648463631
595,210123.18065141767
2,1, 8,21, 0,13,40.00,50.00,SummerDesignDay
8,4344512.644584006
595,210123.18065141767
2,1, 8,21, 0,13,50.00,60.00,SummerDesignDay
8,4350296.467283934
595,210123.18065141767
2,1, 8,21, 0,14, 0.00,10.00,SummerDesignDay
8,4354584.459498614
595,210123.18065141767
2,1, 8,21, 0,14,10.00,20.00,SummerDesignDay
8,4359994.785786759
595,210123.18065141767
2,1, 8,21, 0,14,20.00,30.00,SummerDesignDay
8,4366509.059904017
595,210123.18065141767
2,1, 8,21, 0,14,30.00,40.00,SummerDesignDay
8,4373814.751410271
595,210123.18065141767
2,1, 8,21, 0,14,40.00,50.00,SummerDesignDay
8,4381549.830054546
595,210123.18065141767
2,1, 8,21, 0,14,50.00,60.00,SummerDesignDay
8,4389518.834754509
595,210123.18065141767
2,1, 8,21, 0,15, 0.00,10.00,SummerDesignDay
8,4393998.063308726
595,210123.18065141767
2,1, 8,21, 0,15,10.00,20.00,SummerDesignDay
8,4398273.957629146
595,210123.18065141767
2,1, 8,21, 0,15,20.00,30.00,SummerDesignDay
8,4402205.432235334
595,210123.18065141767
2,1, 8,21, 0,15,30.00,40.00,SummerDesignDay
8,5002389.058906544
595,210123.18065141767
2,1, 8,21, 0,15,40.00,50.00,SummerDesignDay
8,5066512.811394638
595,210123.18065141767
2,1, 8,21, 0,15,50.00,60.00,SummerDesignDay
8,4411288.387432326
595,210123.18065141767
2,1, 8,21, 0,16, 0.00,10.00,SummerDesignDay
8,4409123.24954944
595,210123.18065141767
2,1, 8,21, 0,16,10.00,20.00,SummerDesignDay
8,4406453.190452763
595,210123.18065141767
2,1, 8,21, 0,16,20.00,30.00,SummerDesignDay
8,4403231.99832936
595,210123.18065141767
2,1, 8,21, 0,16,30.00,40.00,SummerDesignDay
8,4399458.262051605
595,210123.18065141767
2,1, 8,21, 0,16,40.00,50.00,SummerDesignDay
8,4395715.18732851
595,210123.18065141767
2,1, 8,21, 0,16,50.00,60.00,SummerDesignDay
8,4390991.87717741
595,210123.18065141767
2,1, 8,21, 0,17, 0.00,10.00,SummerDesignDay
8,4384200.66640557
595,210123.18065141767
2,1, 8,21, 0,17,10.00,20.00,SummerDesignDay
8,4376733.426816049
595,210123.18065141767
2,1, 8,21, 0,17,20.00,30.00,SummerDesignDay
8,4368575.68873382
595,210123.18065141767
2,1, 8,21, 0,17,30.00,40.00,SummerDesignDay
8,4359714.436645822
595,210123.18065141767
2,1, 8,21, 0,17,40.00,50.00,SummerDesignDay
8,4350140.0993785905
595,210123.18065141767
2,1, 8,21, 0,17,50.00,60.00,SummerDesignDay
8,4339853.292136094
595,210123.18065141767
2,1, 8,21, 0,18, 0.00,10.00,SummerDesignDay
8,4327517.584273397
595,210123.18065141767
2,1, 8,21, 0,18,10.00,20.00,SummerDesignDay
8,4314537.022855792
595,210123.18065141767
2,1, 8,21, 0,18,20.00,30.00,SummerDesignDay
8,4300928.55246117
595,210123.18065141767
2,1, 8,21, 0,18,30.00,40.00,SummerDesignDay
8,4286814.063990682
595,210123.18065141767
2,1, 8,21, 0,18,40.00,50.00,SummerDesignDay
8,4272321.981514676
595,210123.18065141767
2,1, 8,21, 0,18,50.00,60.00,SummerDesignDay
8,4257588.872592655
595,210123.18065141767
2,1, 8,21, 0,19, 0.00,10.00,SummerDesignDay
8,4239502.569544539
595,210123.18065141767
2,1, 8,21, 0,19,10.00,20.00,SummerDesignDay
8,4221382.503019835
595,210123.18065141767
2,1, 8,21, 0,19,20.00,30.00,SummerDesignDay
8,4203595.680462775
595,210123.18065141767
2,1, 8,21, 0,19,30.00,40.00,SummerDesignDay
8,4186283.463404599
595,210123.18065141767
2,1, 8,21, 0,19,40.00,50.00,SummerDesignDay
8,4169971.2629832937
595,210123.18065141767
2,1, 8,21, 0,19,50.00,60.00,SummerDesignDay
8,4154415.744836839
595,210123.18065141767
2,1, 8,21, 0,20, 0.00,10.00,SummerDesignDay
8,4141738.7217741404
595,210123.18065141767
2,1, 8,21, 0,20,10.00,20.00,SummerDesignDay
8,4129050.770566887
595,210123.18065141767
2,1, 8,21, 0,20,20.00,30.00,SummerDesignDay
8,4116027.4576681526
595,210123.18065141767
2,1, 8,21, 0,20,30.00,40.00,SummerDesignDay
8,5357089.028189362
595,210123.18065141767
2,1, 8,21, 0,20,40.00,50.00,SummerDesignDay
8,4087792.303273029
595,210123.18065141767
2,1, 8,21, 0,20,50.00,60.00,SummerDesignDay
8,4071272.4742001873
595,210123.18065141767
2,1, 8,21, 0,21, 0.00,10.00,SummerDesignDay
8,4055026.5273505747
595,210123.18065141767
2,1, 8,21, 0,21,10.00,20.00,SummerDesignDay
8,4036128.6282396885
595,210123.18065141767
2,1, 8,21, 0,21,20.00,30.00,SummerDesignDay
8,4015754.5370372273
595,210123.18065141767
2,1, 8,21, 0,21,30.00,40.00,SummerDesignDay
8,4538065.805716564
595,210123.18065141767
2,1, 8,21, 0,21,40.00,50.00,SummerDesignDay
8,4521160.574865706
595,210123.18065141767
2,1, 8,21, 0,21,50.00,60.00,SummerDesignDay
8,4507157.813678637
595,210123.18065141767
2,1, 8,21, 0,22, 0.00,10.00,SummerDesignDay
8,4495078.781018605
595,210123.18065141767
2,1, 8,21, 0,22,10.00,20.00,SummerDesignDay
8,4484241.359037595
595,210123.18065141767
2,1, 8,21, 0,22,20.00,30.00,SummerDesignDay
8,4474253.629885284
595,210123.18065141767
2,1, 8,21, 0,22,30.00,40.00,SummerDesignDay
8,4464873.968984369
595,210123.18065141767
2,1, 8,21, 0,22,40.00,50.00,SummerDesignDay
8,4455934.759493431
595,210123.18065141767
2,1, 8,21, 0,22,50.00,60.00,SummerDesignDay
8,4447317.565889388
595,210123.18065141767
2,1, 8,21, 0,23, 0.00,10.00,SummerDesignDay
8,4033796.176028608
595,210123.18065141767
2,1, 8,21, 0,23,10.00,20.00,SummerDesignDay
8,4033796.176028608
595,210123.18065141767
2,1, 8,21, 0,23,20.00,30.00,SummerDesignDay
8,4033796.176028608
595,210123.18065141767
2,1, 8,21, 0,23,30.00,40.00,SummerDesignDay
8,4033796.176028608
595,210123.18065141767
2,1, 8,21, 0,23,40.00,50.00,SummerDesignDay
8,4033796.176028608
595,210123.18065141767
2,1, 8,21, 0,23,50.00,60.00,SummerDesignDay
8,4033796.176028608
595,210123.18065141767
2,1, 8,21, 0,24, 0.00,10.00,SummerDesignDay
8,4033796.176028608
595,210123.18065141767
2,1, 8,21, 0,24,10.00,20.00,SummerDesignDay
8,4033796.176028608
595,210123.18065141767
2,1, 8,21, 0,24,20.00,30.00,SummerDesignDay
8,4033796.176028608
595,210123.18065141767
2,1, 8,21, 0,24,30.00,40.00,SummerDesignDay
8,4033796.176028608
595,210123.18065141767
2,1, 8,21, 0,24,40.00,50.00,SummerDesignDay
8,4033796.176028608
595,210123.18065141767
2,1, 8,21, 0,24,50.00,60.00,SummerDesignDay
8,4033796.176028608
595,210123.18065141767
1,KODIAK ANN HTG 99.6% CONDNS DB HVAC Sizing Pass 1,  57.75,-152.50,  -9.00,   5.00
2,1, 1,21, 0, 1, 0.00,10.00,WinterDesignDay
8,1103534.1760286232
595,10891747.572985537
2,1, 1,21, 0, 1,10.00,20.00,WinterDesignDay
8,1103534.1760286232
595,10891765.430024603
2,1, 1,21, 0, 1,20.00,30.00,WinterDesignDay
8,1103534.1760286232
595,10891783.137667943
2,1, 1,21, 0, 1,30.00,40.00,WinterDesignDay
8,1103534.1760286232
595,10891800.697169969
2,1, 1,21, 0, 1,40.00,50.00,WinterDesignDay
8,1103534.1760286232
595,10891818.109774489
2,1, 1,21, 0, 1,50.00,60.00,WinterDesignDay
8,1103534.1760286232
595,10891835.376714855
2,1, 1,21, 0, 2, 0.00,10.00,WinterDesignDay
8,1103534.1760286232
595,10891852.499214094
2,1, 1,21, 0, 2,10.00,20.00,WinterDesignDay
8,1103534.1760286232
595,10891869.478484837
2,1, 1,21, 0, 2,20.00,30.00,WinterDesignDay
8,1103534.1760286232
595,10891886.315729538
2,1, 1,21, 0, 2,30.00,40.00,WinterDesignDay
8,1103534.1760286232
595,11072422.143167462
2,1, 1,21, 0, 2,40.00,50.00,WinterDesignDay
8,1103534.1760286232
595,11102042.749551775
2,1, 1,21, 0, 2,50.00,60.00,WinterDesignDay
8,1103534.1760286232
595,11102059.167832524
2,1, 1,21, 0, 3, 0.00,10.00,WinterDesignDay
8,1103534.1760286232
595,11102075.448796727
2,1, 1,21, 0, 3,10.00,20.00,WinterDesignDay
8,1103534.1760286232
595,11102091.593597095
2,1, 1,21, 0, 3,20.00,30.00,WinterDesignDay
8,1103534.1760286232
595,11102107.603376606
2,1, 1,21, 0, 3,30.00,40.00,WinterDesignDay
8,1103534.1760286232
595,11102123.479268633
2,1, 1,21, 0, 3,40.00,50.00,WinterDesignDay
8,1103534.1760286232
595,11102139.222396974
2,1, 1,21, 0, 3,50.00,60.00,WinterDesignDay
8,1103534.1760286232
595,11102154.833876032
2,1, 1,21, 0, 4, 0.00,10.00,WinterDesignDay
8,1103534.1760286232
595,11102170.314810764
2,1, 1,21, 0, 4,10.00,20.00,WinterDesignDay
8,1103534.1760286232
595,11102185.666296812
2,1, 1,21, 0, 4,20.00,30.00,WinterDesignDay
8,1103534.1760286232
595,11102200.889420668
2,1, 1,21, 0, 4,30.00,40.00,WinterDesignDay
8,1103534.1760286232
595,11102215.98525965
2,1, 1,21, 0, 4,40.00,50.00,WinterDesignDay
8,1103534.1760286232
595,11102230.954881916
2,1, 1,21, 0, 4,50.00,60.00,WinterDesignDay
8,1103534.1760286232
595,11102245.799346806
2,1, 1,21, 0, 5, 0.00,10.00,WinterDesignDay
8,1103534.1760286232
595,11102260.519704573
2,1, 1,21, 0, 5,10.00,20.00,WinterDesignDay
8,1103534.1760286232
595,11102275.11699673
2,1, 1,21, 0, 5,20.00,30.00,WinterDesignDay
8,1103534.1760286232
595,11102289.592255995
2,1, 1,21, 0, 5,30.00,40.00,WinterDesignDay
8,1103534.1760286232
595,11102303.94650642
2,1, 1,21, 0, 5,40.00,50.00,WinterDesignDay
8,1103534.1760286232
595,11102318.180763345
2,1, 1,21, 0, 5,50.00,60.00,WinterDesignDay
8,2358240.708774665
595,11102332.2960337
2,1, 1,21, 0, 6, 0.00,10.00,WinterDesignDay
8,1103534.1760286232
595,11102346.293315839
2,1, 1,21, 0, 6,10.00,20.00,WinterDesignDay
8,1103534.1760286232
595,11102360.173599748
2,1, 1,21, 0, 6,20.00,30.00,WinterDesignDay
8,1103534.1760286232
595,11102373.937866988
2,1, 1,21, 0, 6,30.00,40.00,WinterDesignDay
8,1103534.1760286232
595,11102387.587091045
2,1, 1,21, 0, 6,40.00,50.00,WinterDesignDay
8,1103534.1760286232
595,11102401.122237066
2,1, 1,21, 0, 6,50.00,60.00,WinterDesignDay
8,1103534.1760286232
595,11102414.544262107
2,1, 1,21, 0, 7, 0.00,10.00,WinterDesignDay
8,1288988.1760286232
595,11102427.854115164
2,1, 1,21, 0, 7,10.00,20.00,WinterDesignDay
8,1288988.1760286232
595,11102441.052737368
2,1, 1,21, 0, 7,20.00,30.00,WinterDesignDay
8,1288988.1760286232
595,11102454.141061751
2,1, 1,21, 0, 7,30.00,40.00,WinterDesignDay
8,1288988.1760286232
595,11102467.12001361
2,1, 1,21, 0, 7,40.00,50.00,WinterDesignDay
8,1288988.1760286232
595,11102479.990510425
2,1, 1,21, 0, 7,50.00,60.00,WinterDesignDay
8,1288988.1760286232
595,11102492.753461936
2,1, 1,21, 0, 8, 0.00,10.00,WinterDesignDay
8,1289059.7140179204
595,11102505.40977022
2,1, 1,21, 0, 8,10.00,20.00,WinterDesignDay
8,1289059.7140179204
595,11102517.960329793
2,1, 1,21, 0, 8,20.00,30.00,WinterDesignDay
8,1289059.7140179204
595,11102530.406027626
2,1, 1,21, 0, 8,30.00,40.00,WinterDesignDay
8,1289059.7140179204
595,11102542.747743186
2,1, 1,21, 0, 8,40.00,50.00,WinterDesignDay
8,1289059.7140179204
595,11102554.986348638
2,1, 1,21, 0, 8,50.00,60.00,WinterDesignDay