Program Version,EnergyPlus, Version 22.2.0-aa78da9668, YMD=2023.04.05 16:08
1,5,Environment Title[],Latitude[deg],Longitude[deg],Time Zone[],Elevation[m]
2,8,Day of Simulation[],Month[],Day of Month[],DST Indicator[1=yes 0=no],Hour[],StartMinute[],EndMinute[],DayType
3,5,Cumulative Day of Simulation[],Month[],Day of Month[],DST Indicator[1=yes 0=no],DayType  ! When Daily Report Variables Requested
4,2,Cumulative Days of Simulation[],Month[]  ! When Monthly Report Variables Requested
5,1,Cumulative Days of Simulation[] ! When Run Period Report Variables Requested
6,1,Calendar Year of Simulation[] ! When Annual Report Variables Requested
8,1,Electricity:Facility [J] !TimeStep
1603,1,NaturalGas:Facility [J] !TimeStep
End of Data Dictionary
1,KODIAK ANN CLG .4% CONDNS DB=>MWB HVAC Sizing Pass 1,  57.75,-152.49,  -9.00,  34.00
2,1, 8,21, 0, 1, 0.00,10.00,SummerDesignDay
8,6922867.539957342
1603,0.0
2,1, 8,21, 0, 1,10.00,20.00,SummerDesignDay
8,6907243.72353794
1603,0.0
2,1, 8,21, 0, 1,20.00,30.00,SummerDesignDay
8,6892145.978999986
1603,0.0
2,1, 8,21, 0, 1,30.00,40.00,SummerDesignDay
8,6875516.54135354
1603,0.0
2,1, 8,21, 0, 1,40.00,50.00,SummerDesignDay
8,6864801.452315925
1603,0.0
2,1, 8,21, 0, 1,50.00,60.00,SummerDesignDay
8,6848974.9394883495
1603,0.0
2,1, 8,21, 0, 2, 0.00,10.00,SummerDesignDay
8,6837856.227234066
1603,0.0
2,1, 8,21, 0, 2,10.00,20.00,SummerDesignDay
8,6827013.634327454
1603,0.0
2,1, 8,21, 0, 2,20.00,30.00,SummerDesignDay
8,6816432.975747812
1603,0.0
2,1, 8,21, 0, 2,30.00,40.00,SummerDesignDay
8,6806094.385894169
1603,362267.62055583054
2,1, 8,21, 0, 2,40.00,50.00,SummerDesignDay
8,6795978.589405989
1603,566583.9916606869
2,1, 8,21, 0, 2,50.00,60.00,SummerDesignDay
8,6786126.892169952
1603,566583.9916606869
2,1, 8,21, 0, 3, 0.00,10.00,SummerDesignDay
8,6774929.353069105
1603,566583.9916606869
2,1, 8,21, 0, 3,10.00,20.00,SummerDesignDay
8,6770639.782326333
1603,225967.39977822322
2,1, 8,21, 0, 3,20.00,30.00,SummerDesignDay
8,6759393.3291807
1603,0.0
2,1, 8,21, 0, 3,30.00,40.00,SummerDesignDay
8,6751871.7727999
1603,0.0
2,1, 8,21, 0, 3,40.00,50.00,SummerDesignDay
8,6743978.311449883
1603,0.0
2,1, 8,21, 0, 3,50.00,60.00,SummerDesignDay
8,6736590.359244037
1603,0.0
2,1, 8,21, 0, 4, 0.00,10.00,SummerDesignDay
8,6729320.124694672
1603,0.0
2,1, 8,21, 0, 4,10.00,20.00,SummerDesignDay
8,6722158.856457156
1603,0.0
2,1, 8,21, 0, 4,20.00,30.00,SummerDesignDay
8,6715098.369923723
1603,0.0
2,1, 8,21, 0, 4,30.00,40.00,SummerDesignDay
8,6708131.751088857
1603,0.0
2,1, 8,21, 0, 4,40.00,50.00,SummerDesignDay
8,6701253.252462174
1603,136267.72009068937
2,1, 8,21, 0, 4,50.00,60.00,SummerDesignDay
8,6687779.261285802
1603,566583.9916606869
2,1, 8,21, 0, 5, 0.00,10.00,SummerDesignDay
8,6693916.899673956
1603,566583.9916606869
2,1, 8,21, 0, 5,10.00,20.00,SummerDesignDay
8,6681049.540330539
1603,566583.9916606869
2,1, 8,21, 0, 5,20.00,30.00,SummerDesignDay
8,6677220.558051784
1603,451976.9020552359
2,1, 8,21, 0, 5,30.00,40.00,SummerDesignDay
8,6671304.876352627
1603,0.0
2,1, 8,21, 0, 5,40.00,50.00,SummerDesignDay
8,6665621.197612823
1603,0.0
2,1, 8,21, 0, 5,50.00,60.00,SummerDesignDay
8,7914766.510737693
1603,0.0
2,1, 8,21, 0, 6, 0.00,10.00,SummerDesignDay
8,6657566.068234283
1603,0.0
2,1, 8,21, 0, 6,10.00,20.00,SummerDesignDay
8,6655223.1664159605
1603,0.0
2,1, 8,21, 0, 6,20.00,30.00,SummerDesignDay
8,6652985.768094481
1603,0.0
2,1, 8,21, 0, 6,30.00,40.00,SummerDesignDay
8,6642265.610968904
1603,0.0
2,1, 8,21, 0, 6,40.00,50.00,SummerDesignDay
8,6655639.653365943
1603,0.0
2,1, 8,21, 0, 6,50.00,60.00,SummerDesignDay
8,6313838.960510103
1603,0.0
2,1, 8,21, 0, 7, 0.00,10.00,SummerDesignDay
8,6341993.970135381
1603,476854.403856446
2,1, 8,21, 0, 7,10.00,20.00,SummerDesignDay
8,6375071.190967246
1603,566583.9916606869
2,1, 8,21, 0, 7,20.00,30.00,SummerDesignDay
8,6430406.429274318
1603,566583.9916606869
2,1, 8,21, 0, 7,30.00,40.00,SummerDesignDay
8,6476354.789935807
1603,566583.9916606869
2,1, 8,21, 0, 7,40.00,50.00,SummerDesignDay
8,6526200.314268599
1603,111395.74951407043
2,1, 8,21, 0, 7,50.00,60.00,SummerDesignDay
8,6579467.905661911
1603,0.0
2,1, 8,21, 0, 8, 0.00,10.00,SummerDesignDay
8,6638566.321811635
1603,0.0
2,1, 8,21, 0, 8,10.00,20.00,SummerDesignDay
8,6696036.010318648
1603,0.0
2,1, 8,21, 0, 8,20.00,30.00,SummerDesignDay
8,6750889.669324608
1603,268803.0034763292
2,1, 8,21, 0, 8,30.00,40.00,SummerDesignDay
8,6803323.056021672
1603,566583.9916606869
2,1, 8,21, 0, 8,40.00,50.00,SummerDesignDay
8,6855054.547693128
1603,566583.9916606869
2,1, 8,21, 0, 8,50.00,60.00,SummerDesignDay
8,6907183.972402838
1603,566583.9916606869
2,1, 8,21, 0, 9, 0.00,10.00,SummerDesignDay
8,6960559.816792582
1603,566583.9916606869
2,1, 8,21, 0, 9,10.00,20.00,SummerDesignDay
8,7015424.526093404
1603,566583.9916606869
2,1, 8,21, 0, 9,20.00,30.00,SummerDesignDay
8,7074219.44794816
1603,566583.9916606869
2,1, 8,21, 0, 9,30.00,40.00,SummerDesignDay
8,7136234.228062896
1603,566583.9916606869
2,1, 8,21, 0, 9,40.00,50.00,SummerDesignDay
8,7200895.591249825
1603,566583.9916606869
2,1, 8,21, 0, 9,50.00,60.00,SummerDesignDay
8,7267378.833983103
1603,566583.9916606869
2,1, 8,21, 0,10, 0.00,10.00,SummerDesignDay
8,7333105.699546998
1603,566583.9916606869
2,1, 8,21, 0,10,10.00,20.00,SummerDesignDay
8,7399704.041314835
1603,566583.9916606869
2,1, 8,21, 0,10,20.00,30.00,SummerDesignDay
8,7466755.858731274
1603,566583.9916606869
2,1, 8,21, 0,10,30.00,40.00,SummerDesignDay
8,7533914.3531032875
1603,566583.9916606869
2,1, 8,21, 0,10,40.00,50.00,SummerDesignDay
8,8855547.021970646
1603,566583.9916606869
2,1, 8,21, 0,10,50.00,60.00,SummerDesignDay
8,7667179.100578624
1603,566583.9916606869
2,1, 8,21, 0,11, 0.00,10.00,SummerDesignDay
8,7730137.243782945
1603,566583.9916606869
2,1, 8,21, 0,11,10.00,20.00,SummerDesignDay
8,7791703.213437533
1603,566583.9916606869
2,1, 8,21, 0,11,20.00,30.00,SummerDesignDay
8,7851611.601778387
1603,566583.9916606869
2,1, 8,21, 0,11,30.00,40.00,SummerDesignDay
8,7907240.143903436
1603,566583.9916606869
2,1, 8,21, 0,11,40.00,50.00,SummerDesignDay
8,7962591.50644803
1603,566583.9916606869
2,1, 8,21, 0,11,50.00,60.00,SummerDesignDay
8,8015745.202957042
1603,566583.9916606869
2,1, 8,21, 0,12, 0.00,10.00,SummerDesignDay
8,8060242.669935346
1603,566583.9916606869
2,1, 8,21, 0,12,10.00,20.00,SummerDesignDay
8,8102073.8275902625
1603,566583.9916606869
2,1, 8,21, 0,12,20.00,30.00,SummerDesignDay
8,8141116.682767197
1603,566583.9916606869
2,1, 8,21, 0,12,30.00,40.00,SummerDesignDay
8,8177339.136948137
1603,566583.9916606869
2,1, 8,21, 0,12,40.00,50.00,SummerDesignDay
8,8210749.739564383
1603,566583.9916606869
2,1, 8,21, 0,12,50.00,60.00,SummerDesignDay
8,8241402.628560252
1603,566583.9916606869
2,1, 8,21, 0,13, 0.00,10.00,SummerDesignDay
8,8266772.942267281
1603,566583.9916606869
2,1, 8,21, 0,13,10.00,20.00,SummerDesignDay
8,8289606.788052873
1603,566583.9916606869
2,1, 8,21, 0,13,20.00,30.00,SummerDesignDay
8,8310148.183382633
1603,566583.9916606869
2,1, 8,21, 0,13,30.00,40.00,SummerDesignDay
8,8328878.2993199015
1603,566583.9916606869
2,1, 8,21, 0,13,40.00,50.00,SummerDesignDay
8,8346374.717412894
1603,566583.9916606869
2,1, 8,21, 0,13,50.00,60.00,SummerDesignDay
8,8363437.3273616275
1603,566583.9916606869
2,1, 8,21, 0,14, 0.00,10.00,SummerDesignDay
8,8377116.555071755
1603,566583.9916606869
2,1, 8,21, 0,14,10.00,20.00,SummerDesignDay
8,8393544.55246404
1603,566583.9916606869
2,1, 8,21, 0,14,20.00,30.00,SummerDesignDay
8,8412743.64185368
1603,566583.9916606869
2,1, 8,21, 0,14,30.00,40.00,SummerDesignDay
8,8433627.16994755
1603,566583.9916606869
2,1, 8,21, 0,14,40.00,50.00,SummerDesignDay
8,8455623.63959002
1603,566583.9916606869
2,1, 8,21, 0,14,50.00,60.00,SummerDesignDay
8,8478186.50092551
1603,566583.9916606869
2,1, 8,21, 0,15, 0.00,10.00,SummerDesignDay
8,8494057.502866834
1603,566583.9916606869
2,1, 8,21, 0,15,10.00,20.00,SummerDesignDay
8,8509498.673747454
1603,566583.9916606869
2,1, 8,21, 0,15,20.00,30.00,SummerDesignDay
8,8524269.13001848
1603,566583.9916606869
2,1, 8,21, 0,15,30.00,40.00,SummerDesignDay
8,9792767.5328816
1603,566583.9916606869
2,1, 8,21, 0,15,40.00,50.00,SummerDesignDay
8,8550637.663258962
1603,566583.9916606869
2,1, 8,21, 0,15,50.00,60.00,SummerDesignDay
8,8561729.370088428
1603,566583.9916606869
2,1, 8,21, 0,16, 0.00,10.00,SummerDesignDay
8,8562785.696450911
1603,566583.9916606869
2,1, 8,21, 0,16,10.00,20.00,SummerDesignDay
8,8561722.061469918
1603,566583.9916606869
2,1, 8,21, 0,16,20.00,30.00,SummerDesignDay
8,8558278.42314348
1603,566583.9916606869
2,1, 8,21, 0,16,30.00,40.00,SummerDesignDay
8,8552288.216787882
1603,566583.9916606869
2,1, 8,21, 0,16,40.00,50.00,SummerDesignDay
8,8545788.076188512
1603,566583.9916606869
2,1, 8,21, 0,16,50.00,60.00,SummerDesignDay
8,8534829.334595332
1603,566583.9916606869
2,1, 8,21, 0,17, 0.00,10.00,SummerDesignDay
8,8518154.650973484
1603,566583.9916606869
2,1, 8,21, 0,17,10.00,20.00,SummerDesignDay
8,8498394.215116307
1603,566583.9916606869
2,1, 8,21, 0,17,20.00,30.00,SummerDesignDay
8,8475546.131354788
1603,566583.9916606869
2,1, 8,21, 0,17,30.00,40.00,SummerDesignDay
8,8449629.45101081
1603,566583.9916606869
2,1, 8,21, 0,17,40.00,50.00,SummerDesignDay
8,8420658.401061114
1603,566583.9916606869
2,1, 8,21, 0,17,50.00,60.00,SummerDesignDay
8,8388760.88544216
1603,566583.9916606869
2,1, 8,21, 0,18, 0.00,10.00,SummerDesignDay
8,8351360.3592268815
1603,566583.9916606869
2,1, 8,21, 0,18,10.00,20.00,SummerDesignDay
8,8311212.204637876
1603,566583.9916606869
2,1, 8,21, 0,18,20.00,30.00,SummerDesignDay
8,8268483.043749749
1603,566583.9916606869
2,1, 8,21, 0,18,30.00,40.00,SummerDesignDay
8,8223381.34508827
1603,566583.9916606869
2,1, 8,21, 0,18,40.00,50.00,SummerDesignDay
8,8176254.368465166
1603,529682.2041162945
2,1, 8,21, 0,18,50.00,60.00,SummerDesignDay
8,8127456.379864442
1603,0.0
2,1, 8,21, 0,19, 0.00,10.00,SummerDesignDay
8,8071672.053101596
1603,0.0
2,1, 8,21, 0,19,10.00,20.00,SummerDesignDay
8,8017827.603502283
1603,0.0
2,1, 8,21, 0,19,20.00,30.00,SummerDesignDay
8,7967308.00054579
1603,454438.4553779627
2,1, 8,21, 0,19,30.00,40.00,SummerDesignDay
8,7919660.450353324
1603,566583.9916606869
2,1, 8,21, 0,19,40.00,50.00,SummerDesignDay
8,7875612.595489839
1603,566583.9916606869
2,1, 8,21, 0,19,50.00,60.00,SummerDesignDay
8,7833161.631582458
1603,566583.9916606869
2,1, 8,21, 0,20, 0.00,10.00,SummerDesignDay
8,7795293.681962601
1603,566583.9916606869
2,1, 8,21, 0,20,10.00,20.00,SummerDesignDay
8,7755805.234581364
1603,566583.9916606869
2,1, 8,21, 0,20,20.00,30.00,SummerDesignDay
8,7711770.34101155
1603,566583.9916606869
2,1, 8,21, 0,20,30.00,40.00,SummerDesignDay
8,8916579.672796568
1603,566583.9916606869
2,1, 8,21, 0,20,40.00,50.00,SummerDesignDay
8,7605719.298552776
1603,566583.9916606869
2,1, 8,21, 0,20,50.00,60.00,SummerDesignDay
8,7540428.595826149
1603,566583.9916606869
2,1, 8,21, 0,21, 0.00,10.00,SummerDesignDay
8,7470216.558521304
1603,566583.9916606869
2,1, 8,21, 0,21,10.00,20.00,SummerDesignDay
8,7394043.380832545
1603,566583.9916606869
2,1, 8,21, 0,21,20.00,30.00,SummerDesignDay
8,7314432.074507066
1603,566583.9916606869
2,1, 8,21, 0,21,30.00,40.00,SummerDesignDay
8,7770793.361495495
1603,566583.9916606869
2,1, 8,21, 0,21,40.00,50.00,SummerDesignDay
8,7705098.603787206
1603,566583.9916606869
2,1, 8,21, 0,21,50.00,60.00,SummerDesignDay
8,7647490.4457801925
1603,566583.9916606869
2,1, 8,21, 0,22, 0.00,10.00,SummerDesignDay
8,7595708.934596152
1603,531425.493890835
2,1, 8,21, 0,22,10.00,20.00,SummerDesignDay
8,7548700.626474013
1603,0.0
2,1, 8,21, 0,22,20.00,30.00,SummerDesignDay
8,7505724.229271919
1603,0.0
2,1, 8,21, 0,22,30.00,40.00,SummerDesignDay
8,7466137.641063538
1603,0.0
2,1, 8,21, 0,22,40.00,50.00,SummerDesignDay
8,7429484.859927721
1603,262574.90710658586
2,1, 8,21, 0,22,50.00,60.00,SummerDesignDay
8,7395370.428177998
1603,566583.9916606869
2,1, 8,21, 0,23, 0.00,10.00,SummerDesignDay
8,7365271.980205914
1603,566583.9916606869
2,1, 8,21, 0,23,10.00,20.00,SummerDesignDay
8,7337238.275749186
1603,566583.9916606869
2,1, 8,21, 0,23,20.00,30.00,SummerDesignDay
8,7310941.34657821
1603,566583.9916606869
2,1, 8,21, 0,23,30.00,40.00,SummerDesignDay
8,7286129.787094103
1603,310825.87788675656
2,1, 8,21, 0,23,40.00,50.00,SummerDesignDay
8,7262664.267815398
1603,0.0
2,1, 8,21, 0,23,50.00,60.00,SummerDesignDay
8,7240316.064806733
1603,0.0
2,1, 8,21, 0,24, 0.00,10.00,SummerDesignDay
8,7219029.994518795
1603,0.0
2,1, 8,21, 0,24,10.00,20.00,SummerDesignDay
8,7198653.029069231
1603,0.0
2,1, 8,21, 0,24,20.00,30.00,SummerDesignDay
8,7179131.366883604
1603,0.0
2,1, 8,21, 0,24,30.00,40.00,SummerDesignDay
8,7160278.907398319
1603,0.0
2,1, 8,21, 0,24,40.00,50.00,SummerDesignDay
8,7142175.803685474
1603,0.0
2,1, 8,21, 0,24,50.00,60.00,SummerDesignDay
8,7124542.807314867
1603,0.0
1,KODIAK ANN CLG .4% CONDNS WB=>MDB HVAC Sizing Pass 1,  57.75,-152.49,  -9.00,  34.00
2,1, 8,21, 0, 1, 0.00,10.00,SummerDesignDay
8,6806505.333433703
1603,0.0
2,1, 8,21, 0, 1,10.00,20.00,SummerDesignDay
8,6791347.088772945
1603,0.0
2,1, 8,21, 0, 1,20.00,30.00,SummerDesignDay
8,6776923.547859111
1603,0.0
2,1, 8,21, 0, 1,30.00,40.00,SummerDesignDay
8,6764013.88885658
1603,0.0
2,1, 8,21, 0, 1,40.00,50.00,SummerDesignDay
8,6751382.150942722
1603,0.0
2,1, 8,21, 0, 1,50.00,60.00,SummerDesignDay
8,6738983.198293723
1603,0.0
2,1, 8,21, 0, 2, 0.00,10.00,SummerDesignDay
8,6728441.588945009
1603,0.0
2,1, 8,21, 0, 2,10.00,20.00,SummerDesignDay
8,6718415.857078021
1603,0.0
2,1, 8,21, 0, 2,20.00,30.00,SummerDesignDay
8,6707903.282201324
1603,0.0
2,1, 8,21, 0, 2,30.00,40.00,SummerDesignDay
8,6693011.300270654
1603,362267.62055583054
2,1, 8,21, 0, 2,40.00,50.00,SummerDesignDay
8,6692501.780239779
1603,566583.9916606869
2,1, 8,21, 0, 2,50.00,60.00,SummerDesignDay
8,6677535.376851371
1603,566583.9916606869
2,1, 8,21, 0, 3, 0.00,10.00,SummerDesignDay
8,6670440.061702066
1603,566583.9916606869
2,1, 8,21, 0, 3,10.00,20.00,SummerDesignDay
8,6661803.43860412
1603,225967.39977822322
2,1, 8,21, 0, 3,20.00,30.00,SummerDesignDay
8,6653441.070250364
1603,0.0
2,1, 8,21, 0, 3,30.00,40.00,SummerDesignDay
8,6645219.354682072
1603,0.0
2,1, 8,21, 0, 3,40.00,50.00,SummerDesignDay
8,6637957.696857601
1603,0.0
2,1, 8,21, 0, 3,50.00,60.00,SummerDesignDay
8,6624054.871559658
1603,0.0
2,1, 8,21, 0, 4, 0.00,10.00,SummerDesignDay
8,6629022.412699844
1603,0.0
2,1, 8,21, 0, 4,10.00,20.00,SummerDesignDay
8,6615264.873610158
1603,0.0
2,1, 8,21, 0, 4,20.00,30.00,SummerDesignDay
8,6610266.905621818
1603,0.0
2,1, 8,21, 0, 4,30.00,40.00,SummerDesignDay
8,6603267.030675529
1603,0.0
2,1, 8,21, 0, 4,40.00,50.00,SummerDesignDay
8,6596489.161339623
1603,136267.72009068937
2,1, 8,21, 0, 4,50.00,60.00,SummerDesignDay
8,6589820.358487499
1603,566583.9916606869
2,1, 8,21, 0, 5, 0.00,10.00,SummerDesignDay
8,6583963.90936601
1603,566583.9916606869
2,1, 8,21, 0, 5,10.00,20.00,SummerDesignDay
8,6578193.437910104
1603,566583.9916606869
2,1, 8,21, 0, 5,20.00,30.00,SummerDesignDay
8,6572931.968826404
1603,451976.9020552359
2,1, 8,21, 0, 5,30.00,40.00,SummerDesignDay
8,6567983.797293144
1603,0.0
2,1, 8,21, 0, 5,40.00,50.00,SummerDesignDay
8,6563535.411345201
1603,0.0
2,1, 8,21, 0, 5,50.00,60.00,SummerDesignDay
8,7814487.952054672
1603,0.0
2,1, 8,21, 0, 6, 0.00,10.00,SummerDesignDay
8,6557955.234062076
1603,0.0
2,1, 8,21, 0, 6,10.00,20.00,SummerDesignDay
8,6556216.385161659
1603,0.0
2,1, 8,21, 0, 6,20.00,30.00,SummerDesignDay
8,6554536.368886132
1603,0.0
2,1, 8,21, 0, 6,30.00,40.00,SummerDesignDay
8,6552918.376436665
1603,0.0
2,1, 8,21, 0, 6,40.00,50.00,SummerDesignDay
8,6551362.465539435
1603,0.0
2,1, 8,21, 0, 6,50.00,60.00,SummerDesignDay
8,6203713.1259645345
1603,0.0
2,1, 8,21, 0, 7, 0.00,10.00,SummerDesignDay
8,6234279.711017086
1603,476854.403856446
2,1, 8,21, 0, 7,10.00,20.00,SummerDesignDay
8,6257995.7798024835
1603,566583.9916606869
2,1, 8,21, 0, 7,20.00,30.00,SummerDesignDay
8,6306507.061610024
1603,566583.9916606869
2,1, 8,21, 0, 7,30.00,40.00,SummerDesignDay
8,6343147.811456993
1603,566583.9916606869
2,1, 8,21, 0, 7,40.00,50.00,SummerDesignDay
8,6406761.70683981
1603,111395.74951407043
2,1, 8,21, 0, 7,50.00,60.00,SummerDesignDay
8,6458948.62060788
1603,0.0
2,1, 8,21, 0, 8, 0.00,10.00,SummerDesignDay
8,6521105.019200444
1603,0.0
2,1, 8,21, 0, 8,10.00,20.00,SummerDesignDay
8,6574011.95223972
1603,0.0
2,1, 8,21, 0, 8,20.00,30.00,SummerDesignDay
8,6643421.591887562
1603,268803.003509292
2,1, 8,21, 0, 8,30.00,40.00,SummerDesignDay
8,6689527.78251895
1603,566583.9916606869
2,1, 8,21, 0, 8,40.00,50.00,SummerDesignDay
8,6743376.436160962
1603,566583.9916606869
2,1, 8,21, 0, 8,50.00,60.00,SummerDesignDay
8,6795638.981466673
1603,566583.9916606869
2,1, 8,21, 0, 9, 0.00,10.00,SummerDesignDay
8,6848693.056401344
1603,566583.9916606869
2,1, 8,21, 0, 9,10.00,20.00,SummerDesignDay
8,6903340.745274172
1603,566583.9916606869
2,1, 8,21, 0, 9,20.00,30.00,SummerDesignDay
8,6967995.854994518
1603,566583.9916606869
2,1, 8,21, 0, 9,30.00,40.00,SummerDesignDay
8,7030534.431347505
1603,566583.9916606869
2,1, 8,21, 0, 9,40.00,50.00,SummerDesignDay
8,7097627.800393653
1603,566583.9916606869
2,1, 8,21, 0, 9,50.00,60.00,SummerDesignDay
8,7166013.233167125
1603,566583.9916606869
2,1, 8,21, 0,10, 0.00,10.00,SummerDesignDay
8,7233733.184928503
1603,566583.9916606869
2,1, 8,21, 0,10,10.00,20.00,SummerDesignDay
8,7301827.380535368
1603,566583.9916606869
2,1, 8,21, 0,10,20.00,30.00,SummerDesignDay
8,7370087.28757203
1603,566583.9916606869
2,1, 8,21, 0,10,30.00,40.00,SummerDesignDay
8,7438047.198121399
1603,566583.9916606869
2,1, 8,21, 0,10,40.00,50.00,SummerDesignDay
8,8760092.6509491
1603,566583.9916606869
2,1, 8,21, 0,10,50.00,60.00,SummerDesignDay
8,7571888.948773983
1603,566583.9916606869
2,1, 8,21, 0,11, 0.00,10.00,SummerDesignDay
8,7634681.918866309
1603,566583.9916606869
2,1, 8,21, 0,11,10.00,20.00,SummerDesignDay
8,7695563.301705757
1603,566583.9916606869
2,1, 8,21, 0,11,20.00,30.00,SummerDesignDay
8,7755320.321810983
1603,566583.9916606869
2,1, 8,21, 0,11,30.00,40.00,SummerDesignDay
8,7810126.452876175
1603,566583.9916606869
2,1, 8,21, 0,11,40.00,50.00,SummerDesignDay
8,7864763.613554918
1603,566583.9916606869
2,1, 8,21, 0,11,50.00,60.00,SummerDesignDay
8,7917067.660746656
1603,566583.9916606869
2,1, 8,21, 0,12, 0.00,10.00,SummerDesignDay
8,7960612.13782282
1603,566583.9916606869
2,1, 8,21, 0,12,10.00,20.00,SummerDesignDay
8,8001076.105238316
1603,566583.9916606869
2,1, 8,21, 0,12,20.00,30.00,SummerDesignDay
8,8039333.817649489
1603,566583.9916606869
2,1, 8,21, 0,12,30.00,40.00,SummerDesignDay
8,8074336.204102767
1603,566583.9916606869
2,1, 8,21, 0,12,40.00,50.00,SummerDesignDay
8,8106649.956587051
1603,566583.9916606869
2,1, 8,21, 0,12,50.00,60.00,SummerDesignDay
8,8136180.95553807
1603,566583.9916606869
2,1, 8,21, 0,13, 0.00,10.00,SummerDesignDay
8,8160450.206209515
1603,566583.9916606869
2,1, 8,21, 0,13,10.00,20.00,SummerDesignDay
8,8182208.824211884
1603,566583.9916606869
2,1, 8,21, 0,13,20.00,30.00,SummerDesignDay
8,8201721.597213457
1603,566583.9916606869
2,1, 8,21, 0,13,30.00,40.00,SummerDesignDay
8,8219461.960860056
1603,566583.9916606869
2,1, 8,21, 0,13,40.00,50.00,SummerDesignDay
8,8236038.658788354
1603,566583.9916606869
2,1, 8,21, 0,13,50.00,60.00,SummerDesignDay
8,8252246.768698611
1603,566583.9916606869
2,1, 8,21, 0,14, 0.00,10.00,SummerDesignDay
8,8265160.575551609
1603,566583.9916606869
2,1, 8,21, 0,14,10.00,20.00,SummerDesignDay
8,8280861.4129404295
1603,566583.9916606869
2,1, 8,21, 0,14,20.00,30.00,SummerDesignDay
8,8299400.365399157
1603,566583.9916606869
2,1, 8,21, 0,14,30.00,40.00,SummerDesignDay
8,8319730.5867173495
1603,566583.9916606869
2,1, 8,21, 0,14,40.00,50.00,SummerDesignDay
8,8341089.067510471
1603,566583.9916606869
2,1, 8,21, 0,14,50.00,60.00,SummerDesignDay
8,8363345.2362650875
1603,566583.9916606869
2,1, 8,21, 0,15, 0.00,10.00,SummerDesignDay
8,8378863.7494581
1603,566583.9916606869
2,1, 8,21, 0,15,10.00,20.00,SummerDesignDay
8,8394036.026813194
1603,566583.9916606869
2,1, 8,21, 0,15,20.00,30.00,SummerDesignDay
8,8408568.626068432
1603,566583.9916606869
2,1, 8,21, 0,15,30.00,40.00,SummerDesignDay
8,9676826.66357053
1603,566583.9916606869
2,1, 8,21, 0,15,40.00,50.00,SummerDesignDay
8,8434378.907047275
1603,566583.9916606869
2,1, 8,21, 0,15,50.00,60.00,SummerDesignDay
8,8445318.18296037
1603,566583.9916606869
2,1, 8,21, 0,16, 0.00,10.00,SummerDesignDay
8,8446230.54168871
1603,566583.9916606869
2,1, 8,21, 0,16,10.00,20.00,SummerDesignDay
8,8445069.870752925
1603,566583.9916606869
2,1, 8,21, 0,16,20.00,30.00,SummerDesignDay
8,8441542.652516693
1603,566583.9916606869
2,1, 8,21, 0,16,30.00,40.00,SummerDesignDay
8,8435484.88634501
1603,566583.9916606869
2,1, 8,21, 0,16,40.00,50.00,SummerDesignDay
8,8428970.431526609
1603,566583.9916606869
2,1, 8,21, 0,16,50.00,60.00,SummerDesignDay
8,8417956.193081824
1603,566583.9916606869
2,1, 8,21, 0,17, 0.00,10.00,SummerDesignDay
8,8401369.978456516
1603,566583.9916606869
2,1, 8,21, 0,17,10.00,20.00,SummerDesignDay
8,8381566.8543469645
1603,566583.9916606869
2,1, 8,21, 0,17,20.00,30.00,SummerDesignDay
8,8358794.311050256
1603,566583.9916606869
2,1, 8,21, 0,17,30.00,40.00,SummerDesignDay
8,8332954.062083966
1603,566583.9916606869
2,1, 8,21, 0,17,40.00,50.00,SummerDesignDay
8,8304094.03853589
1603,566583.9916606869
2,1, 8,21, 0,17,50.00,60.00,SummerDesignDay
8,8272342.20290828
1603,566583.9916606869
2,1, 8,21, 0,18, 0.00,10.00,SummerDesignDay
8,8235160.968027747
1603,566583.9916606869
2,1, 8,21, 0,18,10.00,20.00,SummerDesignDay
8,8195272.962450312
1603,566583.9916606869
2,1, 8,21, 0,18,20.00,30.00,SummerDesignDay
8,8152851.3735655425
1603,566583.9916606869
2,1, 8,21, 0,18,30.00,40.00,SummerDesignDay
8,8108113.704324682
1603,566583.9916606869
2,1, 8,21, 0,18,40.00,50.00,SummerDesignDay
8,8061430.439767215
1603,529682.2040055608
2,1, 8,21, 0,18,50.00,60.00,SummerDesignDay
8,8013187.821661622
1603,0.0
2,1, 8,21, 0,19, 0.00,10.00,SummerDesignDay
8,7958177.964449794
1603,0.0
2,1, 8,21, 0,19,10.00,20.00,SummerDesignDay
8,7904920.676274782
1603,0.0
2,1, 8,21, 0,19,20.00,30.00,SummerDesignDay
8,7854585.0483263405
1603,454438.4554884752
2,1, 8,21, 0,19,30.00,40.00,SummerDesignDay
8,7807518.204157677
1603,566583.9916606869
2,1, 8,21, 0,19,40.00,50.00,SummerDesignDay
8,7764024.0713334195
1603,566583.9916606869
2,1, 8,21, 0,19,50.00,60.00,SummerDesignDay
8,7722281.768520601
1603,566583.9916606869
2,1, 8,21, 0,20, 0.00,10.00,SummerDesignDay
8,7684525.577085938
1603,566583.9916606869
2,1, 8,21, 0,20,10.00,20.00,SummerDesignDay
8,7644874.613014445
1603,566583.9916606869
2,1, 8,21, 0,20,20.00,30.00,SummerDesignDay
8,7601053.903188081
1603,566583.9916606869
2,1, 8,21, 0,20,30.00,40.00,SummerDesignDay
8,8805754.05163044
1603,566583.9916606869
2,1, 8,21, 0,20,40.00,50.00,SummerDesignDay
8,7495039.491576988
1603,566583.9916606869
2,1, 8,21, 0,20,50.00,60.00,SummerDesignDay
8,7429803.756124692
1603,566583.9916606869
2,1, 8,21, 0,21, 0.00,10.00,SummerDesignDay
8,7359926.193494736
1603,566583.9916606869
2,1, 8,21, 0,21,10.00,20.00,SummerDesignDay
8,7282920.900702071
1603,566583.9916606869
2,1, 8,21, 0,21,20.00,30.00,SummerDesignDay
8,7202474.385071316
1603,566583.9916606869
2,1, 8,21, 0,21,30.00,40.00,SummerDesignDay
8,7656279.083926789
1603,566583.9916606869
2,1, 8,21, 0,21,40.00,50.00,SummerDesignDay
8,7590113.721942456
1603,566583.9916606869
2,1, 8,21, 0,21,50.00,60.00,SummerDesignDay
8,7532115.289087444
1603,566583.9916606869
2,1, 8,21, 0,22, 0.00,10.00,SummerDesignDay
8,7479771.9598181695
1603,531425.4938175931
2,1, 8,21, 0,22,10.00,20.00,SummerDesignDay
8,7432345.535599412
1603,0.0
2,1, 8,21, 0,22,20.00,30.00,SummerDesignDay
8,7389009.248775844
1603,0.0
2,1, 8,21, 0,22,30.00,40.00,SummerDesignDay
8,7348862.222414393
1603,0.0
2,1, 8,21, 0,22,40.00,50.00,SummerDesignDay
8,7311762.19420732
1603,262574.9071801585
2,1, 8,21, 0,22,50.00,60.00,SummerDesignDay
8,7277150.066051733
1603,566583.9916606869
2,1, 8,21, 0,23, 0.00,10.00,SummerDesignDay
8,7246555.705922403
1603,566583.9916606869
2,1, 8,21, 0,23,10.00,20.00,SummerDesignDay
8,7218080.675598503
1603,566583.9916606869
2,1, 8,21, 0,23,20.00,30.00,SummerDesignDay
8,7191297.792059247
1603,566583.9916606869
2,1, 8,21, 0,23,30.00,40.00,SummerDesignDay
8,7166001.074005597
1603,310825.87786229845
2,1, 8,21, 0,23,40.00,50.00,SummerDesignDay
8,7142013.247311785
1603,0.0
2,1, 8,21, 0,23,50.00,60.00,SummerDesignDay
8,7119100.150500347
1603,0.0
2,1, 8,21, 0,24, 0.00,10.00,SummerDesignDay
8,7098680.534830005
1603,0.0
2,1, 8,21, 0,24,10.00,20.00,SummerDesignDay
8,7079123.274503671
1603,0.0
2,1, 8,21, 0,24,20.00,30.00,SummerDesignDay
8,7060329.394230852
1603,0.0
2,1, 8,21, 0,24,30.00,40.00,SummerDesignDay
8,7042211.380469239
1603,0.0
2,1, 8,21, 0,24,40.00,50.00,SummerDesignDay
8,7024693.44417128
1603,0.0
2,1, 8,21, 0,24,50.00,60.00,SummerDesignDay
8,7007710.769364666
1603,0.0
1,KODIAK ANN HTG 99.6% CONDNS DB HVAC Sizing Pass 1,  57.75,-152.49,  -9.00,  34.00
2,1, 1,21, 0, 1, 0.00,10.00,WinterDesignDay
8,1903542.8184253436
1603,21519450.216752186
2,1, 1,21, 0, 1,10.00,20.00,WinterDesignDay
8,1903542.8184253436
1603,21519481.331057157
2,1, 1,21, 0, 1,20.00,30.00,WinterDesignDay
8,1903542.8184253436
1603,21519512.17788033
2,1, 1,21, 0, 1,30.00,40.00,WinterDesignDay
8,1903542.8184253436
1603,21519542.759534545
2,1, 1,21, 0, 1,40.00,50.00,WinterDesignDay
8,1903542.8184253436
1603,21519573.078312356
2,1, 1,21, 0, 1,50.00,60.00,WinterDesignDay
8,1903542.8184253436
1603,21519603.13648617
2,1, 1,21, 0, 2, 0.00,10.00,WinterDesignDay
8,1903542.8184253436
1603,21519632.936309233
2,1, 1,21, 0, 2,10.00,20.00,WinterDesignDay
8,1903542.8184253436
1603,21519662.480014563
2,1, 1,21, 0, 2,20.00,30.00,WinterDesignDay
8,1903542.8184253436
1603,21519691.769816227
2,1, 1,21, 0, 2,30.00,40.00,WinterDesignDay
8,1903542.8184253436
1603,21881988.42846441
2,1, 1,21, 0, 2,40.00,50.00,WinterDesignDay
8,1903542.8184253436
1603,22086333.588127952
2,1, 1,21, 0, 2,50.00,60.00,WinterDesignDay
8,1903542.8184253436
1603,22086362.1293095
2,1, 1,21, 0, 3, 0.00,10.00,WinterDesignDay
8,1903542.8184253436
1603,22086390.425251774
2,1, 1,21, 0, 3,10.00,20.00,WinterDesignDay
8,1903542.8184253436
1603,21745801.886191543
2,1, 1,21, 0, 3,20.00,30.00,WinterDesignDay
8,1903542.8184253436
1603,21519862.298216265
2,1, 1,21, 0, 3,30.00,40.00,WinterDesignDay
8,1903542.8184253436
1603,21519889.871082492
2,1, 1,21, 0, 3,40.00,50.00,WinterDesignDay
8,1903542.8184253436
1603,21519917.20707658
2,1, 1,21, 0, 3,50.00,60.00,WinterDesignDay
8,1903542.8184253436
1603,21519944.30824481
2,1, 1,21, 0, 4, 0.00,10.00,WinterDesignDay
8,1903542.8184253436
1603,21519971.17661593
2,1, 1,21, 0, 4,10.00,20.00,WinterDesignDay
8,1903542.8184253436
1603,21519997.81420103
2,1, 1,21, 0, 4,20.00,30.00,WinterDesignDay
8,1903542.8184253436
1603,21520024.2229937
2,1, 1,21, 0, 4,30.00,40.00,WinterDesignDay
8,1903542.8184253436
1603,21520050.40497024
2,1, 1,21, 0, 4,40.00,50.00,WinterDesignDay
8,1903542.8184253436
1603,21656344.082180332
2,1, 1,21, 0, 4,50.00,60.00,WinterDesignDay
8,1903542.8184253436
1603,22086686.08795466
2,1, 1,21, 0, 5, 0.00,10.00,WinterDesignDay
8,1903542.8184253436
1603,22086711.6011692
2,1, 1,21, 0, 5,10.00,20.00,WinterDesignDay
8,1903542.8184253436
1603,22086736.8953022
2,1, 1,21, 0, 5,20.00,30.00,WinterDesignDay
8,1903542.8184253436
1603,21972154.882640187
2,1, 1,21, 0, 5,30.00,40.00,WinterDesignDay
8,1903542.8184253436
1603,21520202.842214234
2,1, 1,21, 0, 5,40.00,50.00,WinterDesignDay
8,1903542.8184253436
1603,21520227.49038859
2,1, 1,21, 0, 5,50.00,60.00,WinterDesignDay
8,3158259.2450905456
1603,21520251.926950805
2,1, 1,21, 0, 6, 0.00,10.00,WinterDesignDay
8,1903542.8184253436
1603,21520276.153727885
2,1, 1,21, 0, 6,10.00,20.00,WinterDesignDay
8,1903542.8184253436
1603,21520300.17253111
2,1, 1,21, 0, 6,20.00,30.00,WinterDesignDay
8,1903542.8184253436
1603,21520323.98515556
2,1, 1,21, 0, 6,30.00,40.00,WinterDesignDay
8,1903542.8184253436
1603,21520347.59338132
2,1, 1,21, 0, 6,40.00,50.00,WinterDesignDay
8,1903542.8184253436
1603,21520370.998972457
2,1, 1,21, 0, 6,50.00,60.00,WinterDesignDay
8,1903542.8184253436
1603,21520394.203678034
2,1, 1,21, 0, 7, 0.00,10.00,WinterDesignDay
8,2088996.8184253436
1603,21997271.61308825
2,1, 1,21, 0, 7,10.00,20.00,WinterDesignDay
8,2088996.8184253436
1603,22087024.009013373
2,1, 1,21, 0, 7,20.00,30.00,WinterDesignDay
8,2088996.8184253436
1603,22087046.62140494
2,1, 1,21, 0, 7,30.00,40.00,WinterDesignDay
8,2088996.8184253436
1603,22087069.039756395
2,1, 1,21, 0, 7,40.00,50.00,WinterDesignDay
8,2088996.8184253436
1603,21631903.023595355
2,1, 1,21, 0, 7,50.00,60.00,WinterDesignDay
8,2088996.8184253436
1603,21520529.309360962
2,1, 1,21, 0, 8, 0.00,10.00,WinterDesignDay
8,2089189.7161313738
1603,21520551.15558002
2,1, 1,21, 0, 8,10.00,20.00,WinterDesignDay
8,2089189.7161313738
1603,21520572.814369533
2,1, 1,21, 0, 8,20.00,30.00,WinterDesignDay
8,2089189.7161313738
1603,21825792.21319215
2,1, 1,21, 0, 8,30.00,40.00,WinterDesignDay
8,2089189.7161313738
1603,22087199.56777504
2,1, 1,21, 0, 8,40.00,50.00,WinterDesignDay
8,2089189.7161313738
1603,22087220.67392218
2,1, 1,21, 0, 8,50.00,60.00,WinterDesignDay
8,2089189.7161313738
1603,22087241.59902394
2,1, 1,21, 0, 9, 0.00,10.00,WinterDesignDay
8,2089189.7161313738
1603,22087262.344642077
2,1, 1,21, 0, 9,10.00,20.00,WinterDesignDay
8,2089189.7161313738
1603,22087282.91232453
2,1, 1,21, 0, 9,20.00,30.00,WinterDesignDay
8,2089189.7161313738
1603,22087303.303605776
2,1, 1,21, 0, 9,30.00,40.00,WinterDesignDay
8,2089189.7161313738
1603,22087323.520007264
2,1, 1,21, 0, 9,40.00,50.00,WinterDesignDay
8,2089189.7161313738
1603,22087343.563036814
2,1, 1,21, 0, 9,50.00,60.00,WinterDesignDay
8,2089189.7161313738
1603,22087363.434189647
2,1, 1,21, 0,10, 0.00,10.00,WinterDesignDay
8,2089189.7161313738
1603,22087383.13494769
2,1, 1,21, 0,10,10.00,20.00,WinterDesignDay
8,2089189.7161313738
1603,22087402.666780017
2,1, 1,21, 0,10,20.00,30.00,WinterDesignDay
8,2089189.7161313738
1603,22087422.031143162
2,1, 1,21, 0,10,30.00,40.00,WinterDesignDay
8,2089189.7161313738
1603,22087441.22948083