Program Version,EnergyPlus, Version 22.2.0-aa78da9668, YMD=2023.06.12 10:58
1,5,Environment Title[],Latitude[deg],Longitude[deg],Time Zone[],Elevation[m]
2,8,Day of Simulation[],Month[],Day of Month[],DST Indicator[1=yes 0=no],Hour[],StartMinute[],EndMinute[],DayType
3,5,Cumulative Day of Simulation[],Month[],Day of Month[],DST Indicator[1=yes 0=no],DayType  ! When Daily Report Variables Requested
4,2,Cumulative Days of Simulation[],Month[]  ! When Monthly Report Variables Requested
5,1,Cumulative Days of Simulation[] ! When Run Period Report Variables Requested
6,1,Calendar Year of Simulation[] ! When Annual Report Variables Requested
202,1,ZONE OFFICE WHOLEBUILDING - SM OFFICE 2  - STORY GROUND,Zone Mean Air Temperature [C] !Hourly
8,1,Electricity:Facility [J] !TimeStep
597,1,NaturalGas:Facility [J] !TimeStep
End of Data Dictionary
1,RUN PERIOD 1,  57.75,-152.50,  -9.00,   5.00
2,1, 1, 1, 0, 1, 0.00,60.00,Sunday
8,38074026.93883808
597,0.0
2,1, 1, 1, 0, 1, 0.00,60.00,Sunday
202,28.49188394711279
2,1, 1, 1, 0, 2, 0.00,60.00,Sunday
8,38074026.93883808
597,600294.0892385336
2,1, 1, 1, 0, 2, 0.00,60.00,Sunday
202,28.121109864276313
2,1, 1, 1, 0, 3, 0.00,60.00,Sunday
8,38074026.93883808
597,1260739.083908506
2,1, 1, 1, 0, 3, 0.00,60.00,Sunday
202,28.023386562042745
2,1, 1, 1, 0, 4, 0.00,60.00,Sunday
8,39332946.520208254
597,1260739.083908506
2,1, 1, 1, 0, 4, 0.00,60.00,Sunday
202,28.5722727297481
2,1, 1, 1, 0, 5, 0.00,60.00,Sunday
8,38074026.93883808
597,1260739.083908506
2,1, 1, 1, 0, 5, 0.00,60.00,Sunday
202,28.832339057464782
2,1, 1, 1, 0, 6, 0.00,60.00,Sunday
8,38074026.93883808
597,1260739.083908506
2,1, 1, 1, 0, 6, 0.00,60.00,Sunday
202,28.97886067632804
2,1, 1, 1, 0, 7, 0.00,60.00,Sunday
8,39592446.457843795
597,1260739.083908506
2,1, 1, 1, 0, 7, 0.00,60.00,Sunday
202,29.02966494870052
2,1, 1, 1, 0, 8, 0.00,60.00,Sunday
8,38333580.11604396
597,1260739.083908506
2,1, 1, 1, 0, 8, 0.00,60.00,Sunday
202,29.048954873843638
2,1, 1, 1, 0, 9, 0.00,60.00,Sunday
8,38333580.11604396
597,1260739.083908506
2,1, 1, 1, 0, 9, 0.00,60.00,Sunday
202,29.08014335742477
2,1, 1, 1, 0,10, 0.00,60.00,Sunday
8,39592393.05037807
597,139986.7963099459
2,1, 1, 1, 0,10, 0.00,60.00,Sunday
202,29.23260317345891
2,1, 1, 1, 0,11, 0.00,60.00,Sunday
8,37845969.26494102
597,460403.1831945803
2,1, 1, 1, 0,11, 0.00,60.00,Sunday
202,29.793074210306404
2,1, 1, 1, 0,12, 0.00,60.00,Sunday
8,37845969.26494102
597,1260739.083908506
2,1, 1, 1, 0,12, 0.00,60.00,Sunday
202,30.134322329415184
2,1, 1, 1, 0,13, 0.00,60.00,Sunday
8,39104728.69501342
597,1260739.083908506
2,1, 1, 1, 0,13, 0.00,60.00,Sunday
202,30.311956987452138
2,1, 1, 1, 0,14, 0.00,60.00,Sunday
8,37845969.26494102
597,1260739.083908506
2,1, 1, 1, 0,14, 0.00,60.00,Sunday
202,30.355133253068878
2,1, 1, 1, 0,15, 0.00,60.00,Sunday
8,37845969.26494102
597,1260739.083908506
2,1, 1, 1, 0,15, 0.00,60.00,Sunday
202,30.19780004207542
2,1, 1, 1, 0,16, 0.00,60.00,Sunday
8,39104675.18073883
597,1260739.083908506
2,1, 1, 1, 0,16, 0.00,60.00,Sunday
202,29.996883488403142
2,1, 1, 1, 0,17, 0.00,60.00,Sunday
8,38333580.11604396
597,1260739.083908506
2,1, 1, 1, 0,17, 0.00,60.00,Sunday
202,29.725015439416175
2,1, 1, 1, 0,18, 0.00,60.00,Sunday
8,38333580.11604396
597,1260739.083908506
2,1, 1, 1, 0,18, 0.00,60.00,Sunday
202,29.61762016820679
2,1, 1, 1, 0,19, 0.00,60.00,Sunday
8,39592232.46433393
597,279847.8842058629
2,1, 1, 1, 0,19, 0.00,60.00,Sunday
202,29.569251508339367
2,1, 1, 1, 0,20, 0.00,60.00,Sunday
8,38333580.11604396
597,320566.7777257378
2,1, 1, 1, 0,20, 0.00,60.00,Sunday
202,29.472417399300785
2,1, 1, 1, 0,21, 0.00,60.00,Sunday
8,38333580.11604396
597,1260739.083908506
2,1, 1, 1, 0,21, 0.00,60.00,Sunday
202,29.43412768023241
2,1, 1, 1, 0,22, 0.00,60.00,Sunday
8,38333580.11604396
597,1260739.083908506
2,1, 1, 1, 0,22, 0.00,60.00,Sunday
202,29.413632809407204
2,1, 1, 1, 0,23, 0.00,60.00,Sunday
8,39592506.84136386
597,1260739.083908506
2,1, 1, 1, 0,23, 0.00,60.00,Sunday
202,29.292365472816225
2,1, 1, 1, 0,24, 0.00,60.00,Sunday
8,38333580.11604396
597,1260739.083908506
2,1, 1, 1, 0,24, 0.00,60.00,Sunday
202,29.150626047082397
2,2, 1, 2, 0, 1, 0.00,60.00,Monday
8,38074183.02172382
597,1260739.083908506
2,2, 1, 2, 0, 1, 0.00,60.00,Monday
202,29.079893135379102
2,2, 1, 2, 0, 2, 0.00,60.00,Monday
8,39333056.40017348
597,1260739.083908506
2,2, 1, 2, 0, 2, 0.00,60.00,Monday
202,29.03072701090161
2,2, 1, 2, 0, 3, 0.00,60.00,Monday
8,38074183.02172382
597,1260739.083908506
2,2, 1, 2, 0, 3, 0.00,60.00,Monday
202,28.88939319533173
2,2, 1, 2, 0, 4, 0.00,60.00,Monday
8,38074183.02172382
597,1260739.083908506
2,2, 1, 2, 0, 4, 0.00,60.00,Monday
202,28.909131733070137
2,2, 1, 2, 0, 5, 0.00,60.00,Monday
8,39333002.99975907
597,1260739.083908506
2,2, 1, 2, 0, 5, 0.00,60.00,Monday
202,28.89337735640469
2,2, 1, 2, 0, 6, 0.00,60.00,Monday
8,38074183.02172382
597,1260739.083908506
2,2, 1, 2, 0, 6, 0.00,60.00,Monday
202,28.86459218974581
2,2, 1, 2, 0, 7, 0.00,60.00,Monday
8,38333736.198929705
597,1260739.083908506
2,2, 1, 2, 0, 7, 0.00,60.00,Monday
202,28.830154415759868
2,2, 1, 2, 0, 8, 0.00,60.00,Monday
8,39592502.72310503
597,1260739.083908506
2,2, 1, 2, 0, 8, 0.00,60.00,Monday
202,28.705001530045482
2,2, 1, 2, 0, 9, 0.00,60.00,Monday
8,38333736.198929705
597,1260739.083908506
2,2, 1, 2, 0, 9, 0.00,60.00,Monday
202,28.74016540045355
2,2, 1, 2, 0,10, 0.00,60.00,Monday
8,38333736.198929705
597,1260739.083908506
2,2, 1, 2, 0,10, 0.00,60.00,Monday
202,28.72931808032522
2,2, 1, 2, 0,11, 0.00,60.00,Monday
8,39105056.56759363
597,1260739.083908506
2,2, 1, 2, 0,11, 0.00,60.00,Monday
202,29.43845532237953
2,2, 1, 2, 0,12, 0.00,60.00,Monday
8,37846125.347826764
597,1260739.083908506
2,2, 1, 2, 0,12, 0.00,60.00,Monday
202,29.785452676355547
2,2, 1, 2, 0,13, 0.00,60.00,Monday
8,37846125.347826764
597,1260739.083908506
2,2, 1, 2, 0,13, 0.00,60.00,Monday
202,29.966639049157063
2,2, 1, 2, 0,14, 0.00,60.00,Monday
8,39104784.75386092
597,1260739.083908506
2,2, 1, 2, 0,14, 0.00,60.00,Monday
202,30.048469746379904
2,2, 1, 2, 0,15, 0.00,60.00,Monday
8,37846125.347826764
597,1260739.083908506
2,2, 1, 2, 0,15, 0.00,60.00,Monday
202,29.85830261278462
2,2, 1, 2, 0,16, 0.00,60.00,Monday
8,37846125.347826764
597,1260739.083908506
2,2, 1, 2, 0,16, 0.00,60.00,Monday
202,29.326566967716968
2,2, 1, 2, 0,17, 0.00,60.00,Monday
8,38333736.198929705
597,1260739.083908506
2,2, 1, 2, 0,17, 0.00,60.00,Monday
202,29.000975129254165
2,2, 1, 2, 0,18, 0.00,60.00,Monday
8,39592669.867255874
597,1260739.083908506
2,2, 1, 2, 0,18, 0.00,60.00,Monday
202,28.71780579597823
2,2, 1, 2, 0,19, 0.00,60.00,Monday
8,38333736.198929705
597,1260739.083908506
2,2, 1, 2, 0,19, 0.00,60.00,Monday
202,28.408852105303236
2,2, 1, 2, 0,20, 0.00,60.00,Monday
8,38333736.198929705
597,1260739.083908506
2,2, 1, 2, 0,20, 0.00,60.00,Monday
202,28.1659229492699
2,2, 1, 2, 0,21, 0.00,60.00,Monday
8,39592616.50574131
597,1260739.083908506
2,2, 1, 2, 0,21, 0.00,60.00,Monday
202,27.92844317688179
2,2, 1, 2, 0,22, 0.00,60.00,Monday
8,43257717.497701816
597,1260739.083908506
2,2, 1, 2, 0,22, 0.00,60.00,Monday
202,28.37932542028547
2,2, 1, 2, 0,23, 0.00,60.00,Monday
8,43257717.497701816
597,1260739.083908506
2,2, 1, 2, 0,23, 0.00,60.00,Monday
202,28.5172208713468
2,2, 1, 2, 0,24, 0.00,60.00,Monday
8,44516544.389339775
597,1260739.083908506
2,2, 1, 2, 0,24, 0.00,60.00,Monday
202,28.577246892455275
2,3, 1, 3, 0, 1, 0.00,60.00,Tuesday
8,38074183.02172382
597,1260739.083908506
2,3, 1, 3, 0, 1, 0.00,60.00,Tuesday
202,27.545782842961714
2,3, 1, 3, 0, 2, 0.00,60.00,Tuesday
8,38074183.02172382
597,1260739.083908506
2,3, 1, 3, 0, 2, 0.00,60.00,Tuesday
202,27.235492893802515
2,3, 1, 3, 0, 3, 0.00,60.00,Tuesday
8,39333119.88291732
597,1260739.083908506
2,3, 1, 3, 0, 3, 0.00,60.00,Tuesday
202,26.844806324992923
2,3, 1, 3, 0, 4, 0.00,60.00,Tuesday
8,38074183.02172382
597,1260739.083908506
2,3, 1, 3, 0, 4, 0.00,60.00,Tuesday
202,26.86106052891769
2,3, 1, 3, 0, 5, 0.00,60.00,Tuesday
8,38074183.02172382
597,1260739.083908506
2,3, 1, 3, 0, 5, 0.00,60.00,Tuesday
202,26.822422283440282
2,3, 1, 3, 0, 6, 0.00,60.00,Tuesday
8,39332902.89054184
597,1260739.083908506
2,3, 1, 3, 0, 6, 0.00,60.00,Tuesday
202,26.960156089836534
2,3, 1, 3, 0, 7, 0.00,60.00,Tuesday
8,38333736.198929705
597,1260739.083908506
2,3, 1, 3, 0, 7, 0.00,60.00,Tuesday
202,26.850109031601942
2,3, 1, 3, 0, 8, 0.00,60.00,Tuesday
8,38333736.198929705
597,1260739.083908506
2,3, 1, 3, 0, 8, 0.00,60.00,Tuesday
202,26.749188085358828
2,3, 1, 3, 0, 9, 0.00,60.00,Tuesday
8,39592402.51410487
597,1260739.083908506
2,3, 1, 3, 0, 9, 0.00,60.00,Tuesday
202,26.562163546823143
2,3, 1, 3, 0,10, 0.00,60.00,Tuesday
8,38333736.198929705
597,1260739.083908506
2,3, 1, 3, 0,10, 0.00,60.00,Tuesday
202,26.448416162263353
2,3, 1, 3, 0,11, 0.00,60.00,Tuesday
8,37846125.347826764
597,1260739.083908506
2,3, 1, 3, 0,11, 0.00,60.00,Tuesday
202,26.799966204263967
2,3, 1, 3, 0,12, 0.00,60.00,Tuesday
8,37846125.347826764
597,1260739.083908506
2,3, 1, 3, 0,12, 0.00,60.00,Tuesday
202,27.270816232455168
2,3, 1, 3, 0,13, 0.00,60.00,Tuesday
8,39105065.854935504
597,1260739.083908506
2,3, 1, 3, 0,13, 0.00,60.00,Tuesday
202,27.562297251557105
2,3, 1, 3, 0,14, 0.00,60.00,Tuesday
8,37846125.347826764
597,1260739.083908506
2,3, 1, 3, 0,14, 0.00,60.00,Tuesday
202,27.83357676908221
2,3, 1, 3, 0,15, 0.00,60.00,Tuesday
8,37846125.347826764
597,1260739.083908506
2,3, 1, 3, 0,15, 0.00,60.00,Tuesday
202,27.776560566271222
2,3, 1, 3, 0,16, 0.00,60.00,Tuesday
8,39105012.63623745
597,1260739.083908506
2,3, 1, 3, 0,16, 0.00,60.00,Tuesday
202,27.611652952802697
2,3, 1, 3, 0,17, 0.00,60.00,Tuesday
8,38333736.198929705
597,1260739.083908506
2,3, 1, 3, 0,17, 0.00,60.00,Tuesday
202,27.47789889895857
2,3, 1, 3, 0,18, 0.00,60.00,Tuesday
8,38333736.198929705
597,1260739.083908506
2,3, 1, 3, 0,18, 0.00,60.00,Tuesday
202,27.42193666046085
2,3, 1, 3, 0,19, 0.00,60.00,Tuesday
8,39592570.10087273
597,1260739.083908506
2,3, 1, 3, 0,19, 0.00,60.00,Tuesday
202,27.47757172507823
2,3, 1, 3, 0,20, 0.00,60.00,Tuesday
8,38333736.198929705
597,1260739.083908506
2,3, 1, 3, 0,20, 0.00,60.00,Tuesday
202,27.47299937440159
2,3, 1, 3, 0,21, 0.00,60.00,Tuesday
8,38333736.198929705
597,1260739.083908506
2,3, 1, 3, 0,21, 0.00,60.00,Tuesday
202,27.375348934676893
2,3, 1, 3, 0,22, 0.00,60.00,Tuesday
8,44516661.39082759
597,1260739.083908506
2,3, 1, 3, 0,22, 0.00,60.00,Tuesday
202,27.88904256356505
2,3, 1, 3, 0,23, 0.00,60.00,Tuesday
8,43257717.497701816
597,1260739.083908506
2,3, 1, 3, 0,23, 0.00,60.00,Tuesday
202,28.085110241287587
2,3, 1, 3, 0,24, 0.00,60.00,Tuesday
8,43257717.497701816
597,1260739.083908506
2,3, 1, 3, 0,24, 0.00,60.00,Tuesday
202,28.04914094349455
2,4, 1, 4, 0, 1, 0.00,60.00,Wednesday
8,39333030.058317766
597,1260739.083908506
2,4, 1, 4, 0, 1, 0.00,60.00,Wednesday
202,27.073850271719717
2,4, 1, 4, 0, 2, 0.00,60.00,Wednesday
8,38074183.02172382
597,1260739.083908506
2,4, 1, 4, 0, 2, 0.00,60.00,Wednesday
202,26.876281071158743
2,4, 1, 4, 0, 3, 0.00,60.00,Wednesday
8,38074183.02172382
597,1260739.083908506
2,4, 1, 4, 0, 3, 0.00,60.00,Wednesday
202,26.683675793770284
2,4, 1, 4, 0, 4, 0.00,60.00,Wednesday
8,39332856.45568656
597,1260739.083908506
2,4, 1, 4, 0, 4, 0.00,60.00,Wednesday
202,26.57142487979168
2,4, 1, 4, 0, 5, 0.00,60.00,Wednesday
8,38074183.02172382
597,1260739.083908506
2,4, 1, 4, 0, 5, 0.00,60.00,Wednesday
202,26.491876068535504
2,4, 1, 4, 0, 6, 0.00,60.00,Wednesday
8,38074183.02172382
597,1260739.083908506
2,4, 1, 4, 0, 6, 0.00,60.00,Wednesday
202,26.433620120603816
2,4, 1, 4, 0, 7, 0.00,60.00,Wednesday
8,38333736.198929705
597,1260739.083908506
2,4, 1, 4, 0, 7, 0.00,60.00,Wednesday
202,26.47460699175156
2,4, 1, 4, 0, 8, 0.00,60.00,Wednesday
8,39592683.79513661
597,1260739.083908506
2,4, 1, 4, 0, 8, 0.00,60.00,Wednesday
202,26.347142581289766
2,4, 1, 4, 0, 9, 0.00,60.00,Wednesday
8,38333736.198929705
597,1260739.083908506
2,4, 1, 4, 0, 9, 0.00,60.00,Wednesday
202,26.372165614652328
2,4, 1, 4, 0,10, 0.00,60.00,Wednesday
8,38333736.198929705
597,1260739.083908506
2,4, 1, 4, 0,10, 0.00,60.00,Wednesday
202,26.53819066172053
2,4, 1, 4, 0,11, 0.00,60.00,Wednesday
8,39105019.6181529
597,1260739.083908506
2,4, 1, 4, 0,11, 0.00,60.00,Wednesday
202,27.086868705173835
2,4, 1, 4, 0,12, 0.00,60.00,Wednesday
8,37846125.347826764
597,1260739.083908506
2,4, 1, 4, 0,12, 0.00,60.00,Wednesday
202,27.637481089362154
2,4, 1, 4, 0,13, 0.00,60.00,Wednesday
8,37846125.347826764
597,1260739.083908506
2,4, 1, 4, 0,13, 0.00,60.00,Wednesday
202,27.896192242199124
2,4, 1, 4, 0,14, 0.00,60.00,Wednesday
8,39104966.3316842
597,1260739.083908506
2,4, 1, 4, 0,14, 0.00,60.00,Wednesday
202,27.980861646891242
2,4, 1, 4, 0,15, 0.00,60.00,Wednesday
8,37846125.347826764
597,1260739.083908506
2,4, 1, 4, 0,15, 0.00,60.00,Wednesday
202,27.713192663575086
2,4, 1, 4, 0,16, 0.00,60.00,Wednesday
8,37846125.347826764
597,1260739.083908506
2,4, 1, 4, 0,16, 0.00,60.00,Wednesday
202,27.414527243212937
2,4, 1, 4, 0,17, 0.00,60.00,Wednesday
8,39592523.74993259
597,1260739.083908506
2,4, 1, 4, 0,17, 0.00,60.00,Wednesday
202,27.310455560694695
2,4, 1, 4, 0,18, 0.00,60.00,Wednesday
8,38333736.198929705
597,1260739.083908506
2,4, 1, 4, 0,18, 0.00,60.00,Wednesday
202,27.18004028017198
2,4, 1, 4, 0,19, 0.00,60.00,Wednesday
8,38333736.198929705
597,1260739.083908506
2,4, 1, 4, 0,19, 0.00,60.00,Wednesday
202,27.198019638852426
2,4, 1, 4, 0,20, 0.00,60.00,Wednesday
8,39592633.95451536
597,1260739.083908506
2,4, 1, 4, 0,20, 0.00,60.00,Wednesday
202,27.819744083261277
2,4, 1, 4, 0,21, 0.00,60.00,Wednesday
8,38333736.198929705
597,1260739.083908506
2,4, 1, 4, 0,21, 0.00,60.00,Wednesday
202,27.730485119359287
2,4, 1, 4, 0,22, 0.00,60.00,Wednesday
8,43257717.497701816
597,1260739.083908506
2,4, 1, 4, 0,22, 0.00,60.00,Wednesday
202,28.19211759445232
2,4, 1, 4, 0,23, 0.00,60.00,Wednesday
8,44516397.979894325
597,1260739.083908506
2,4, 1, 4, 0,23, 0.00,60.00,Wednesday
202,28.40069482971495
2,4, 1, 4, 0,24, 0.00,60.00,Wednesday
8,43257717.497701816
597,1260739.083908506
2,4, 1, 4, 0,24, 0.00,60.00,Wednesday
202,28.435169920492243
2,5, 1, 5, 0, 1, 0.00,60.00,Thursday
8,38074183.02172382
597,1260739.083908506
2,5, 1, 5, 0, 1, 0.00,60.00,Thursday
202,27.501083438891023
2,5, 1, 5, 0, 2, 0.00,60.00,Thursday
8,38074183.02172382
597,1260739.083908506
2,5, 1, 5, 0, 2, 0.00,60.00,Thursday
202,27.249201194598875
2,5, 1, 5, 0, 3, 0.00,60.00,Thursday
8,39333137.54443205
597,1260739.083908506
2,5, 1, 5, 0, 3, 0.00,60.00,Thursday
202,26.856704132392856
2,5, 1, 5, 0, 4, 0.00,60.00,Thursday
8,38074183.02172382
597,1260739.083908506
2,5, 1, 5, 0, 4, 0.00,60.00,Thursday
202,26.61738852609563
2,5, 1, 5, 0, 5, 0.00,60.00,Thursday
8,38074183.02172382
597,1260739.083908506
2,5, 1, 5, 0, 5, 0.00,60.00,Thursday
202,26.442477733604832
2,5, 1, 5, 0, 6, 0.00,60.00,Thursday
8,39333084.339726955
597,1260739.083908506
2,5, 1, 5, 0, 6, 0.00,60.00,Thursday
202,26.13157951921717
2,5, 1, 5, 0, 7, 0.00,60.00,Thursday
8,38333736.198929705
597,1260739.083908506
2,5, 1, 5, 0, 7, 0.00,60.00,Thursday
202,25.78537057885371
2,5, 1, 5, 0, 8, 0.00,60.00,Thursday
8,38333736.198929705
597,1260739.083908506
2,5, 1, 5, 0, 8, 0.00,60.00,Thursday
202,25.412223523193102
2,5, 1, 5, 0, 9, 0.00,60.00,Thursday
8,39592584.21606724
597,1260739.083908506
2,5, 1, 5, 0, 9, 0.00,60.00,Thursday
202,25.223395251452022
2,5, 1, 5, 0,10, 0.00,60.00,Thursday
8,38333736.198929705
597,1260739.083908506
2,5, 1, 5, 0,10, 0.00,60.00,Thursday
202,25.190451596885236
2,5, 1, 5, 0,11, 0.00,60.00,Thursday
8,37846125.347826764
597,1260739.083908506
2,5, 1, 5, 0,11, 0.00,60.00,Thursday
202,25.62642259631425
2,5, 1, 5, 0,12, 0.00,60.00,Thursday
8,39105083.26980385
597,1260739.083908506
2,5, 1, 5, 0,12, 0.00,60.00,Thursday
202,25.921538358942215
2,5, 1, 5, 0,13, 0.00,60.00,Thursday
8,37846125.347826764
597,1260739.083908506
2,5, 1, 5, 0,13, 0.00,60.00,Thursday
202,25.961326741610666
2,5, 1, 5, 0,14, 0.00,60.00,Thursday
8,37846125.347826764
597,1260739.083908506
2,5, 1, 5, 0,14, 0.00,60.00,Thursday
202,25.820682836906403
2,5, 1, 5, 0,15, 0.00,60.00,Thursday
8,39104866.41712729
597,1260739.083908506
2,5, 1, 5, 0,15, 0.00,60.00,Thursday
202,25.649260103408746
2,5, 1, 5, 0,16, 0.00,60.00,Thursday
8,37846125.347826764
597,1260739.083908506
2,5, 1, 5, 0,16, 0.00,60.00,Thursday
202,25.209355789405755
2,5, 1, 5, 0,17, 0.00,60.00,Thursday
8,38333736.198929705
597,1260739.083908506
2,5, 1, 5, 0,17, 0.00,60.00,Thursday
202,24.73348877840798
2,5, 1, 5, 0,18, 0.00,60.00,Thursday
8,39592423.69209404
597,1260739.083908506
2,5, 1, 5, 0,18, 0.00,60.00,Thursday
202,24.478272977554326
2,5, 1, 5, 0,19, 0.00,60.00,Thursday
8,38333736.198929705
597,1260739.083908506
2,5, 1, 5, 0,19, 0.00,60.00,Thursday
202,24.325788678855695
2,5, 1, 5, 0,20, 0.00,60.00,Thursday
8,38333736.198929705
597,1260739.083908506
2,5, 1, 5, 0,20, 0.00,60.00,Thursday
202,24.211052907066627
2,5, 1, 5, 0,21, 0.00,60.00,Thursday
8,38333736.198929705
597,1260739.083908506
2,5, 1, 5, 0,21, 0.00,60.00,Thursday
202,24.01879380061911
2,5, 1, 5, 0,22, 0.00,60.00,Thursday
8,44516679.00991718
597,1260739.083908506
2,5, 1, 5, 0,22, 0.00,60.00,Thursday
202,24.608181500170815
2,5, 1, 5, 0,23, 0.00,60.00,Thursday
8,43257717.497701816
597,1260739.083908506
2,5, 1, 5, 0,23, 0.00,60.00,Thursday
202,24.875158610484675
2,5, 1, 5, 0,24, 0.00,60.00,Thursday
8,43257717.497701816
597,1260739.083908506
2,5, 1, 5, 0,24, 0.00,60.00,Thursday
202,24.933372747653994
2,6, 1, 6, 0, 1, 0.00,60.00,Friday
8,39333091.33621624
597,1260739.083908506
2,6, 1, 6, 0, 1, 0.00,60.00,Friday
202,24.089055619055966
2,6, 1, 6, 0, 2, 0.00,60.00,Friday
8,38074183.02172382
597,1260739.083908506
2,6, 1, 6, 0, 2, 0.00,60.00,Friday
202,23.804904647806975
2,6, 1, 6, 0, 3, 0.00,60.00,Friday
8,38074183.02172382
597,1260739.083908506
2,6, 1, 6, 0, 3, 0.00,60.00,Friday
202,23.68016648223479
2,6, 1, 6, 0, 4, 0.00,60.00,Friday
8,39333038.10194657
597,1260739.083908506
2,6, 1, 6, 0, 4, 0.00,60.00,Friday
202,23.46822171938803
2,6, 1, 6, 0, 5, 0.00,60.00,Friday
8,38074183.02172382
597,1260739.083908506
2,6, 1, 6, 0, 5, 0.00,60.00,Friday
202,23.349608224797795
2,6, 1, 6, 0, 6, 0.00,60.00,Friday
8,38074183.02172382
597,1260739.083908506
2,6, 1, 6, 0, 6, 0.00,60.00,Friday
202,23.252514536702538
2,6, 1, 6, 0, 7, 0.00,60.00,Friday
8,39592537.860407196
597,1260739.083908506
2,6, 1, 6, 0, 7, 0.00,60.00,Friday
202,23.262297140098298
2,6, 1, 6, 0, 8, 0.00,60.00,Friday
8,38333736.198929705
597,1260739.083908506
2,6, 1, 6, 0, 8, 0.00,60.00,Friday
202,23.21968026117004
2,6, 1, 6, 0, 9, 0.00,60.00,Friday
8,38333736.198929705
597,1260739.083908506
2,6, 1, 6, 0, 9, 0.00,60.00,Friday
202,23.13853176786838
2,6, 1, 6, 0,10, 0.00,60.00,Friday
8,39592484.38825035
597,1260739.083908506
2,6, 1, 6, 0,10, 0.00,60.00,Friday
202,23.07198411354578
2,6, 1, 6, 0,11, 0.00,60.00,Friday
8,37846125.347826764
597,1260739.083908506
2,6, 1, 6, 0,11, 0.00,60.00,Friday
202,23.303032270981266
2,6, 1, 6, 0,12, 0.00,60.00,Friday
8,37846125.347826764
597,1260739.083908506
2,6, 1, 6, 0,12, 0.00,60.00,Friday
202,23.590462939092397
2,6, 1, 6, 0,13, 0.00,60.00,Friday
8,39104819.99002443
597,1260739.083908506
2,6, 1, 6, 0,13, 0.00,60.00,Friday
202,23.77255480245607
2,6, 1, 6, 0,14, 0.00,60.00,Friday
8,37846125.347826764
597,1260739.083908506
2,6, 1, 6, 0,14, 0.00,60.00,Friday
202,23.68788684722877
2,6, 1, 6, 0,15, 0.00,60.00,Friday
8,37846125.347826764
597,1260739.083908506
2,6, 1, 6, 0,15, 0.00,60.00,Friday
202,23.38121013074114
2,6, 1, 6, 0,16, 0.00,60.00,Friday
8,38572590.95761102
597,1260739.083908506
2,6, 1, 6, 0,16, 0.00,60.00,Friday
202,23.074543978023584
2,6, 1, 6, 0,17, 0.00,60.00,Friday
8,38378278.18141783
597,1260739.083908506
2,6, 1, 6, 0,17, 0.00,60.00,Friday
202,22.89049498953969
2,6, 1, 6, 0,18, 0.00,60.00,Friday
8,38333736.198929705
597,1260739.083908506
2,6, 1, 6, 0,18, 0.00,60.00,Friday
202,22.78665665216699
2,6, 1, 6, 0,19, 0.00,60.00,Friday
8,38333736.198929705
597,1260739.083908506
2,6, 1, 6, 0,19, 0.00,60.00,Friday
202,22.898816323644333
2,6, 1, 6, 0,20, 0.00,60.00,Friday
8,39592651.59661786
597,1260739.083908506
2,6, 1, 6, 0,20, 0.00,60.00,Friday
202,22.885259719441656
2,6, 1, 6, 0,21, 0.00,60.00,Friday
8,38333736.198929705
597,1260739.083908506
2,6, 1, 6, 0,21, 0.00,60.00,Friday
202,22.81215147249184
2,6, 1, 6, 0,22, 0.00,60.00,Friday
8,43257717.497701816
597,1260739.083908506
2,6, 1, 6, 0,22, 0.00,60.00,Friday
202,23.27000368556287
2,6, 1, 6, 0,23, 0.00,60.00,Friday
8,44516579.515733354
597,1260739.083908506
2,6, 1, 6, 0,23, 0.00,60.00,Friday
202,23.543063430403443
2,6, 1, 6, 0,24, 0.00,60.00,Friday
8,43257717.497701816
597,1260739.083908506
2,6, 1, 6, 0,24, 0.00,60.00,Friday
202,23.691099603787055
2,7, 1, 7, 0, 1, 0.00,60.00,Saturday
8,38074026.93883808
597,1260739.083908506
2,7, 1, 7, 0, 1, 0.00,60.00,Saturday
202,23.108606506462216
2,7, 1, 7, 0, 2, 0.00,60.00,Saturday
8,39332835.52358871
597,1260739.083908506
2,7, 1, 7, 0, 2, 0.00,60.00,Saturday
202,22.967505651712717
2,7, 1, 7, 0, 3, 0.00,60.00,Saturday
8,38074026.93883808
597,1260739.083908506
2,7, 1, 7, 0, 3, 0.00,60.00,Saturday
202,22.905135473125235
2,7, 1, 7, 0, 4, 0.00,60.00,Saturday
8,38074026.93883808
597,1260739.083908506
2,7, 1, 7, 0, 4, 0.00,60.00,Saturday
202,23.02556621316007
2,7, 1, 7, 0, 5, 0.00,60.00,Saturday
8,39332782.0583456
597,1260739.083908506
2,7, 1, 7, 0, 5, 0.00,60.00,Saturday
202,22.938724607736322
2,7, 1, 7, 0, 6, 0.00,60.00,Saturday
8,38074026.93883808
597,1260739.083908506
2,7, 1, 7, 0, 6, 0.00,60.00,Saturday
202,22.870771879933155
2,7, 1, 7, 0, 7, 0.00,60.00,Saturday
8,38333580.11604396
597,1260739.083908506
2,7, 1, 7, 0, 7, 0.00,60.00,Saturday
202,22.856515726996506
2,7, 1, 7, 0, 8, 0.00,60.00,Saturday
8,44516426.88830353
597,1260739.083908506
2,7, 1, 7, 0, 8, 0.00,60.00,Saturday
202,23.514908825500676
2,7, 1, 7, 0, 9, 0.00,60.00,Saturday
8,43257561.414816074
597,1260739.083908506
2,7, 1, 7, 0, 9, 0.00,60.00,Saturday
202,23.946147704869368
2,7, 1, 7, 0,10, 0.00,60.00,Saturday
8,43257561.414816074
597,1260739.083908506
2,7, 1, 7, 0,10, 0.00,60.00,Saturday
202,24.23133528506552
2,7, 1, 7, 0,11, 0.00,60.00,Saturday
8,44028598.54946636
597,1260739.083908506
2,7, 1, 7, 0,11, 0.00,60.00,Saturday
202,24.53012013281968
2,7, 1, 7, 0,12, 0.00,60.00,Saturday
8,42769950.56371313
597,1260739.083908506
2,7, 1, 7, 0,12, 0.00,60.00,Saturday
202,24.779627647163643
2,7, 1, 7, 0,13, 0.00,60.00,Saturday
8,37845969.26494102
597,1260739.083908506
2,7, 1, 7, 0,13, 0.00,60.00,Saturday
202,24.417385511240187
2,7, 1, 7, 0,14, 0.00,60.00,Saturday
8,37845969.26494102
597,1260739.083908506
2,7, 1, 7, 0,14, 0.00,60.00,Saturday
202,24.274597641948056
2,7, 1, 7, 0,15, 0.00,60.00,Saturday
8,39104891.650605716
597,1260739.083908506
2,7, 1, 7, 0,15, 0.00,60.00,Saturday
202,24.049577709209235
2,7, 1, 7, 0,16, 0.00,60.00,Saturday
8,37845969.26494102
597,1260739.083908506
2,7, 1, 7, 0,16, 0.00,60.00,Saturday
202,23.973219037733717
2,7, 1, 7, 0,17, 0.00,60.00,Saturday
8,37845969.26494102
597,1260739.083908506
2,7, 1, 7, 0,17, 0.00,60.00,Saturday
202,23.817319656418874
2,7, 1, 7, 0,18, 0.00,60.00,Saturday
8,39592449.15047703
597,1260739.083908506
2,7, 1, 7, 0,18, 0.00,60.00,Saturday
202,23.55099667917447
2,7, 1, 7, 0,19, 0.00,60.00,Saturday
8,38333580.11604396
597,1260739.083908506
2,7, 1, 7, 0,19, 0.00,60.00,Saturday
202,23.443025125353586
2,7, 1, 7, 0,20, 0.00,60.00,Saturday
8,38333580.11604396
597,1260739.083908506
2,7, 1, 7, 0,20, 0.00,60.00,Saturday
202,23.38739026408151
2,7, 1, 7, 0,21, 0.00,60.00,Saturday
8,39592395.74570923
597,1260739.083908506
2,7, 1, 7, 0,21, 0.00,60.00,Saturday
202,23.344729624774534
2,7, 1, 7, 0,22, 0.00,60.00,Saturday
8,38333580.11604396
597,1260739.083908506
2,7, 1, 7, 0,22, 0.00,60.00,Saturday
202,23.405060785504332
2,7, 1, 7, 0,23, 0.00,60.00,Saturday
8,38333580.11604396
597,1260739.083908506
2,7, 1, 7, 0,23, 0.00,60.00,Saturday
202,23.49710433005176
2,7, 1, 7, 0,24, 0.00,60.00,Saturday
8,39592342.28750397
597,1260739.083908506
2,7, 1, 7, 0,24, 0.00,60.00,Saturday
202,23.41268366151443
2,8, 1, 8, 0, 1, 0.00,60.00,Sunday
8,38074026.93883808
597,1260739.083908506
2,8, 1, 8, 0, 1, 0.00,60.00,Sunday
202,23.475309510250288
2,8, 1, 8, 0, 2, 0.00,60.00,Sunday
8,38074026.93883808
597,1260739.083908506
2,8, 1, 8, 0, 2, 0.00,60.00,Sunday
202,23.50388568270769
2,8, 1, 8, 0, 3, 0.00,60.00,Sunday
8,39332735.598754615
597,1260739.083908506
2,8, 1, 8, 0, 3, 0.00,60.00,Sunday
202,23.510349431952637
2,8, 1, 8, 0, 4, 0.00,60.00,Sunday
8,38074026.93883808
597,1260739.083908506
2,8, 1, 8, 0, 4, 0.00,60.00,Sunday
202,23.505901935270057
2,8, 1, 8, 0, 5, 0.00,60.00,Sunday
8,38074026.93883808
597,1260739.083908506
2,8, 1, 8, 0, 5, 0.00,60.00,Sunday
202,23.507745720133787
2,8, 1, 8, 0, 6, 0.00,60.00,Sunday
8,39332682.033972755
597,1260739.083908506
2,8, 1, 8, 0, 6, 0.00,60.00,Sunday
202,23.68177965767533
2,8, 1, 8, 0, 7, 0.00,60.00,Sunday
8,38333580.11604396
597,1260739.083908506
2,8, 1, 8, 0, 7, 0.00,60.00,Sunday
202,23.896549795308914
2,8, 1, 8, 0, 8, 0.00,60.00,Sunday
8,38333580.11604396
597,1260739.083908506
2,8, 1, 8, 0, 8, 0.00,60.00,Sunday
202,24.031312502587213
2,8, 1, 8, 0, 9, 0.00,60.00,Sunday
8,38333580.11604396
597,1260739.083908506
2,8, 1, 8, 0, 9, 0.00,60.00,Sunday
202,24.09498587323817
2,8, 1, 8, 0,10, 0.00,60.00,Sunday
8,39592509.56022638
597,568787.8141852381
2,8, 1, 8, 0,10, 0.00,60.00,Sunday
202,24.134299356621604
2,8, 1, 8, 0,11, 0.00,60.00,Sunday
8,37845969.26494102
597,31647.41239600173
2,8, 1, 8, 0,11, 0.00,60.00,Sunday
202,24.295674122835443
2,8, 1, 8, 0,12, 0.00,60.00,Sunday
8,37845969.26494102
597,1260739.083908506
2,8, 1, 8, 0,12, 0.00,60.00,Sunday
202,24.60884113886093
2,8, 1, 8, 0,13, 0.00,60.00,Sunday
8,39104845.34360297
597,1260739.083908506
2,8, 1, 8, 0,13, 0.00,60.00,Sunday
202,24.667095492725533
2,8, 1, 8, 0,14, 0.00,60.00,Sunday
8,37845969.26494102
597,1260739.083908506
2,8, 1, 8, 0,14, 0.00,60.00,Sunday
202,24.588379675880606
2,8, 1, 8, 0,15, 0.00,60.00,Sunday
8,37845969.26494102
597,1260739.083908506
2,8, 1, 8, 0,15, 0.00,60.00,Sunday
202,24.429922465771153
2,8, 1, 8, 0,16, 0.00,60.00,Sunday
8,39104791.94589511
597,1260739.083908506
2,8, 1, 8, 0,16, 0.00,60.00,Sunday
202,24.269467717344487
2,8, 1, 8, 0,17, 0.00,60.00,Sunday
8,37845969.26494102
597,1260739.083908506
2,8, 1, 8, 0,17, 0.00,60.00,Sunday
202,24.00459653964625
2,8, 1, 8, 0,18, 0.00,60.00,Sunday
8,38333580.11604396
597,1260739.083908506
2,8, 1, 8, 0,18, 0.00,60.00,Sunday
202,23.794989078435844
2,8, 1, 8, 0,19, 0.00,60.00,Sunday
8,39592349.345839664
597,708631.0328400726
2,8, 1, 8, 0,19, 0.00,60.00,Sunday
202,23.601929492951932
2,8, 1, 8, 0,20, 0.00,60.00,Sunday
8,38333580.11604396
597,0.0
2,8, 1, 8, 0,20, 0.00,60.00,Sunday
202,23.521762628797735
2,8, 1, 8, 0,21, 0.00,60.00,Sunday
8,38333580.11604396
597,1152525.9042407863
2,8, 1, 8, 0,21, 0.00,60.00,Sunday
202,23.5707520986272
2,8, 1, 8, 0,22, 0.00,60.00,Sunday
8,39592295.84132992
597,1260739.083908506
2,8, 1, 8, 0,22, 0.00,60.00,Sunday
202,23.56842608164545
2,8, 1, 8, 0,23, 0.00,60.00,Sunday
8,38333580.11604396
597,1260739.083908506
2,8, 1, 8, 0,23, 0.00,60.00,Sunday
202,23.558074821356097
2,8, 1, 8, 0,24, 0.00,60.00,Sunday
8,38333580.11604396
597,1260739.083908506
2,8, 1, 8, 0,24, 0.00,60.00,Sunday
202,23.54028119090898
2,9, 1, 9, 0, 1, 0.00,60.00,Monday
8,39332845.18924844
597,1260739.083908506
2,9, 1, 9, 0, 1, 0.00,60.00,Monday
202,23.625042778520616
2,9, 1, 9, 0, 2, 0.00,60.00,Monday
8,38074183.02172382
597,1260739.083908506
2,9, 1, 9, 0, 2, 0.00,60.00,Monday
202,23.639781873853217
2,9, 1, 9, 0, 3, 0.00,60.00,Monday
8,38074183.02172382
597,1260739.083908506
2,9, 1, 9, 0, 3, 0.00,60.00,Monday
202,23.63315767378922
2,9, 1, 9, 0, 4, 0.00,60.00,Monday
8,38074183.02172382
597,1260739.083908506
2,9, 1, 9, 0, 4, 0.00,60.00,Monday
202,23.614994887064203
2,9, 1, 9, 0, 5, 0.00,60.00,Monday
8,39333119.46625218
597,1260739.083908506
2,9, 1, 9, 0, 5, 0.00,60.00,Monday
202,23.595535797361126
2,9, 1, 9, 0, 6, 0.00,60.00,Monday
8,38074183.02172382
597,1260739.083908506
2,9, 1, 9, 0, 6, 0.00,60.00,Monday
202,23.672303932332888
2,9, 1, 9, 0, 7, 0.00,60.00,Monday
8,38333736.198929705
597,1260739.083908506
2,9, 1, 9, 0, 7, 0.00,60.00,Monday
202,23.694151300608414
2,9, 1, 9, 0, 8, 0.00,60.00,Monday
8,39592619.30635935
597,1260739.083908506
2,9, 1, 9, 0, 8, 0.00,60.00,Monday
202,23.79003499968745
2,9, 1, 9, 0, 9, 0.00,60.00,Monday
8,38333736.198929705
597,1260739.083908506
2,9, 1, 9, 0, 9, 0.00,60.00,Monday
202,23.992972986491885
2,9, 1, 9, 0,10, 0.00,60.00,Monday
8,38333736.198929705
597,1260739.083908506
2,9, 1, 9, 0,10, 0.00,60.00,Monday
202,23.972631055278235
2,9, 1, 9, 0,11, 0.00,60.00,Monday
8,39104955.06459563
597,1260739.083908506
2,9, 1, 9, 0,11, 0.00,60.00,Monday
202,24.155861530883794
2,9, 1, 9, 0,12, 0.00,60.00,Monday
8,37846125.347826764
597,1260739.083908506
2,9, 1, 9, 0,12, 0.00,60.00,Monday
202,24.35666787967641
2,9, 1, 9, 0,13, 0.00,60.00,Monday
8,37846125.347826764
597,1260739.083908506
2,9, 1, 9, 0,13, 0.00,60.00,Monday
202,24.53018226416173
2,9, 1, 9, 0,14, 0.00,60.00,Monday
8,39104901.62047129
597,1260739.083908506
2,9, 1, 9, 0,14, 0.00,60.00,Monday
202,24.6845188135231
2,9, 1, 9, 0,15, 0.00,60.00,Monday
8,37846125.347826764
597,1260739.083908506
2,9, 1, 9, 0,15, 0.00,60.00,Monday
202,24.66215933622512
2,9, 1, 9, 0,16, 0.00,60.00,Monday
8,37846125.347826764
597,1260739.083908506
2,9, 1, 9, 0,16, 0.00,60.00,Monday
202,24.88891971105289
2,9, 1, 9, 0,17, 0.00,60.00,Monday
8,39104848.1229825
597,1260739.083908506
2,9, 1, 9, 0,17, 0.00,60.00,Monday
202,24.886993424309736
2,9, 1, 9, 0,18, 0.00,60.00,Monday
8,38333736.198929705
597,1260739.083908506
2,9, 1, 9, 0,18, 0.00,60.00,Monday
202,24.902947479128713
2,9, 1, 9, 0,19, 0.00,60.00,Monday
8,38333736.198929705
597,1260739.083908506
2,9, 1, 9, 0,19, 0.00,60.00,Monday
202,24.943628406993227
2,9, 1, 9, 0,20, 0.00,60.00,Monday
8,39592405.4233319
597,1260739.083908506
2,9, 1, 9, 0,20, 0.00,60.00,Monday
202,24.984255898527564
2,9, 1, 9, 0,21, 0.00,60.00,Monday
8,38333736.198929705
597,1260739.083908506
2,9, 1, 9, 0,21, 0.00,60.00,Monday