Program Version,EnergyPlus, Version 22.2.0-aa78da9668, YMD=2023.04.20 10:14
1,5,Environment Title[],Latitude[deg],Longitude[deg],Time Zone[],Elevation[m]
2,8,Day of Simulation[],Month[],Day of Month[],DST Indicator[1=yes 0=no],Hour[],StartMinute[],EndMinute[],DayType
3,5,Cumulative Day of Simulation[],Month[],Day of Month[],DST Indicator[1=yes 0=no],DayType  ! When Daily Report Variables Requested
4,2,Cumulative Days of Simulation[],Month[]  ! When Monthly Report Variables Requested
5,1,Cumulative Days of Simulation[] ! When Run Period Report Variables Requested
6,1,Calendar Year of Simulation[] ! When Annual Report Variables Requested
8,1,Electricity:Facility [J] !TimeStep
End of Data Dictionary
1,KODIAK ANN CLG .4% CONDNS DB=>MWB HVAC Sizing Pass 1,  57.75,-152.49,  -9.00,  34.00
2,1, 8,21, 0, 1, 0.00,10.00,SummerDesignDay
8,1307799.1935054776
2,1, 8,21, 0, 1,10.00,20.00,SummerDesignDay
8,1307799.1935054776
2,1, 8,21, 0, 1,20.00,30.00,SummerDesignDay
8,1307799.1935054776
2,1, 8,21, 0, 1,30.00,40.00,SummerDesignDay
8,1307799.1935054776
2,1, 8,21, 0, 1,40.00,50.00,SummerDesignDay
8,1307799.1935054776
2,1, 8,21, 0, 1,50.00,60.00,SummerDesignDay
8,1307799.1935054776
2,1, 8,21, 0, 2, 0.00,10.00,SummerDesignDay
8,1307799.1935054776
2,1, 8,21, 0, 2,10.00,20.00,SummerDesignDay
8,1307799.1935054776
2,1, 8,21, 0, 2,20.00,30.00,SummerDesignDay
8,1307799.1935054776
2,1, 8,21, 0, 2,30.00,40.00,SummerDesignDay
8,1307799.1935054776
2,1, 8,21, 0, 2,40.00,50.00,SummerDesignDay
8,1307799.1935054776
2,1, 8,21, 0, 2,50.00,60.00,SummerDesignDay
8,1307799.1935054776
2,1, 8,21, 0, 3, 0.00,10.00,SummerDesignDay
8,1307799.1935054776
2,1, 8,21, 0, 3,10.00,20.00,SummerDesignDay
8,1307799.1935054776
2,1, 8,21, 0, 3,20.00,30.00,SummerDesignDay
8,1307799.1935054776
2,1, 8,21, 0, 3,30.00,40.00,SummerDesignDay
8,1307799.1935054776
2,1, 8,21, 0, 3,40.00,50.00,SummerDesignDay
8,1307799.1935054776
2,1, 8,21, 0, 3,50.00,60.00,SummerDesignDay
8,1307799.1935054776
2,1, 8,21, 0, 4, 0.00,10.00,SummerDesignDay
8,1307799.1935054776
2,1, 8,21, 0, 4,10.00,20.00,SummerDesignDay
8,1307799.1935054776
2,1, 8,21, 0, 4,20.00,30.00,SummerDesignDay
8,1307799.1935054776
2,1, 8,21, 0, 4,30.00,40.00,SummerDesignDay
8,1307799.1935054776
2,1, 8,21, 0, 4,40.00,50.00,SummerDesignDay
8,1307799.1935054776
2,1, 8,21, 0, 4,50.00,60.00,SummerDesignDay
8,1307799.1935054776
2,1, 8,21, 0, 5, 0.00,10.00,SummerDesignDay
8,1307799.1935054776
2,1, 8,21, 0, 5,10.00,20.00,SummerDesignDay
8,1307799.1935054776
2,1, 8,21, 0, 5,20.00,30.00,SummerDesignDay
8,1307799.1935054776
2,1, 8,21, 0, 5,30.00,40.00,SummerDesignDay
8,1307799.1935054776
2,1, 8,21, 0, 5,40.00,50.00,SummerDesignDay
8,1307799.1935054776
2,1, 8,21, 0, 5,50.00,60.00,SummerDesignDay
8,2562515.6201708135
2,1, 8,21, 0, 6, 0.00,10.00,SummerDesignDay
8,1307799.1935054776
2,1, 8,21, 0, 6,10.00,20.00,SummerDesignDay
8,1307799.1935054776
2,1, 8,21, 0, 6,20.00,30.00,SummerDesignDay
8,1307799.1935054776
2,1, 8,21, 0, 6,30.00,40.00,SummerDesignDay
8,1307799.1935054776
2,1, 8,21, 0, 6,40.00,50.00,SummerDesignDay
8,1307799.1935054776
2,1, 8,21, 0, 6,50.00,60.00,SummerDesignDay
8,946053.1935054776
2,1, 8,21, 0, 7, 0.00,10.00,SummerDesignDay
8,946053.1935054776
2,1, 8,21, 0, 7,10.00,20.00,SummerDesignDay
8,946053.1935054776
2,1, 8,21, 0, 7,20.00,30.00,SummerDesignDay
8,946053.1935054776
2,1, 8,21, 0, 7,30.00,40.00,SummerDesignDay
8,946053.1935054776
2,1, 8,21, 0, 7,40.00,50.00,SummerDesignDay
8,946053.1935054776
2,1, 8,21, 0, 7,50.00,60.00,SummerDesignDay
8,946053.1935054776
2,1, 8,21, 0, 8, 0.00,10.00,SummerDesignDay
8,946053.1935054776
2,1, 8,21, 0, 8,10.00,20.00,SummerDesignDay
8,946053.1935054776
2,1, 8,21, 0, 8,20.00,30.00,SummerDesignDay
8,946053.1935054776
2,1, 8,21, 0, 8,30.00,40.00,SummerDesignDay
8,946053.1935054776
2,1, 8,21, 0, 8,40.00,50.00,SummerDesignDay
8,946053.1935054776
2,1, 8,21, 0, 8,50.00,60.00,SummerDesignDay
8,946053.1935054776
2,1, 8,21, 0, 9, 0.00,10.00,SummerDesignDay
8,1037645.4251132826
2,1, 8,21, 0, 9,10.00,20.00,SummerDesignDay
8,1037645.4251132826
2,1, 8,21, 0, 9,20.00,30.00,SummerDesignDay
8,1037645.4251132826
2,1, 8,21, 0, 9,30.00,40.00,SummerDesignDay
8,1037645.4251132826
2,1, 8,21, 0, 9,40.00,50.00,SummerDesignDay
8,1037645.4251132826
2,1, 8,21, 0, 9,50.00,60.00,SummerDesignDay
8,1037645.4251132826
2,1, 8,21, 0,10, 0.00,10.00,SummerDesignDay
8,1037645.4251132826
2,1, 8,21, 0,10,10.00,20.00,SummerDesignDay
8,1037645.4251132826
2,1, 8,21, 0,10,20.00,30.00,SummerDesignDay
8,1037645.4251132826
2,1, 8,21, 0,10,30.00,40.00,SummerDesignDay
8,1037645.4251132826
2,1, 8,21, 0,10,40.00,50.00,SummerDesignDay
8,2292350.2790981084
2,1, 8,21, 0,10,50.00,60.00,SummerDesignDay
8,1037645.4251132826
2,1, 8,21, 0,11, 0.00,10.00,SummerDesignDay
8,1037645.4251132826
2,1, 8,21, 0,11,10.00,20.00,SummerDesignDay
8,1037645.4251132826
2,1, 8,21, 0,11,20.00,30.00,SummerDesignDay
8,1037645.4251132826
2,1, 8,21, 0,11,30.00,40.00,SummerDesignDay
8,1037645.4251132826
2,1, 8,21, 0,11,40.00,50.00,SummerDesignDay
8,1037645.4251132826
2,1, 8,21, 0,11,50.00,60.00,SummerDesignDay
8,1037645.4251132826
2,1, 8,21, 0,12, 0.00,10.00,SummerDesignDay
8,1037645.4251132826
2,1, 8,21, 0,12,10.00,20.00,SummerDesignDay
8,1037645.4251132826
2,1, 8,21, 0,12,20.00,30.00,SummerDesignDay
8,1037645.4251132826
2,1, 8,21, 0,12,30.00,40.00,SummerDesignDay
8,1037645.4251132826
2,1, 8,21, 0,12,40.00,50.00,SummerDesignDay
8,1037645.4251132826
2,1, 8,21, 0,12,50.00,60.00,SummerDesignDay
8,1037645.4251132826
2,1, 8,21, 0,13, 0.00,10.00,SummerDesignDay
8,946053.1935054776
2,1, 8,21, 0,13,10.00,20.00,SummerDesignDay
8,946053.1935054776
2,1, 8,21, 0,13,20.00,30.00,SummerDesignDay
8,946053.1935054776
2,1, 8,21, 0,13,30.00,40.00,SummerDesignDay
8,946053.1935054776
2,1, 8,21, 0,13,40.00,50.00,SummerDesignDay
8,946053.1935054776
2,1, 8,21, 0,13,50.00,60.00,SummerDesignDay
8,946053.1935054776
2,1, 8,21, 0,14, 0.00,10.00,SummerDesignDay
8,1037645.4251132826
2,1, 8,21, 0,14,10.00,20.00,SummerDesignDay
8,1037645.4251132826
2,1, 8,21, 0,14,20.00,30.00,SummerDesignDay
8,1037645.4251132826
2,1, 8,21, 0,14,30.00,40.00,SummerDesignDay
8,1037645.4251132826
2,1, 8,21, 0,14,40.00,50.00,SummerDesignDay
8,1037645.4251132826
2,1, 8,21, 0,14,50.00,60.00,SummerDesignDay
8,1037645.4251132826
2,1, 8,21, 0,15, 0.00,10.00,SummerDesignDay
8,1037645.4251132826
2,1, 8,21, 0,15,10.00,20.00,SummerDesignDay
8,1037645.4251132826
2,1, 8,21, 0,15,20.00,30.00,SummerDesignDay
8,1037645.4251132826
2,1, 8,21, 0,15,30.00,40.00,SummerDesignDay
8,2292338.7113996767
2,1, 8,21, 0,15,40.00,50.00,SummerDesignDay
8,1037645.4251132826
2,1, 8,21, 0,15,50.00,60.00,SummerDesignDay
8,1037645.4251132826
2,1, 8,21, 0,16, 0.00,10.00,SummerDesignDay
8,1037645.4251132826
2,1, 8,21, 0,16,10.00,20.00,SummerDesignDay
8,1037645.4251132826
2,1, 8,21, 0,16,20.00,30.00,SummerDesignDay
8,1037645.4251132826
2,1, 8,21, 0,16,30.00,40.00,SummerDesignDay
8,1037645.4251132826
2,1, 8,21, 0,16,40.00,50.00,SummerDesignDay
8,1037645.4251132826
2,1, 8,21, 0,16,50.00,60.00,SummerDesignDay
8,1037645.4251132826
2,1, 8,21, 0,17, 0.00,10.00,SummerDesignDay
8,1037645.4251132826
2,1, 8,21, 0,17,10.00,20.00,SummerDesignDay
8,1037645.4251132826
2,1, 8,21, 0,17,20.00,30.00,SummerDesignDay
8,1037645.4251132826
2,1, 8,21, 0,17,30.00,40.00,SummerDesignDay
8,1037645.4251132826
2,1, 8,21, 0,17,40.00,50.00,SummerDesignDay
8,1037645.4251132826
2,1, 8,21, 0,17,50.00,60.00,SummerDesignDay
8,1037645.4251132826
2,1, 8,21, 0,18, 0.00,10.00,SummerDesignDay
8,946053.1935054776
2,1, 8,21, 0,18,10.00,20.00,SummerDesignDay
8,946053.1935054776
2,1, 8,21, 0,18,20.00,30.00,SummerDesignDay
8,946053.1935054776
2,1, 8,21, 0,18,30.00,40.00,SummerDesignDay
8,946053.1935054776
2,1, 8,21, 0,18,40.00,50.00,SummerDesignDay
8,946053.1935054776
2,1, 8,21, 0,18,50.00,60.00,SummerDesignDay
8,946053.1935054776
2,1, 8,21, 0,19, 0.00,10.00,SummerDesignDay
8,946053.1935054776
2,1, 8,21, 0,19,10.00,20.00,SummerDesignDay
8,946053.1935054776
2,1, 8,21, 0,19,20.00,30.00,SummerDesignDay
8,946053.1935054776
2,1, 8,21, 0,19,30.00,40.00,SummerDesignDay
8,946053.1935054776
2,1, 8,21, 0,19,40.00,50.00,SummerDesignDay
8,946053.1935054776
2,1, 8,21, 0,19,50.00,60.00,SummerDesignDay
8,946053.1935054776
2,1, 8,21, 0,20, 0.00,10.00,SummerDesignDay
8,946053.1935054776
2,1, 8,21, 0,20,10.00,20.00,SummerDesignDay
8,946053.1935054776
2,1, 8,21, 0,20,20.00,30.00,SummerDesignDay
8,946053.1935054776
2,1, 8,21, 0,20,30.00,40.00,SummerDesignDay
8,2200769.8332779068
2,1, 8,21, 0,20,40.00,50.00,SummerDesignDay
8,946053.1935054776
2,1, 8,21, 0,20,50.00,60.00,SummerDesignDay
8,946053.1935054776
2,1, 8,21, 0,21, 0.00,10.00,SummerDesignDay
8,946053.1935054776
2,1, 8,21, 0,21,10.00,20.00,SummerDesignDay
8,946053.1935054776
2,1, 8,21, 0,21,20.00,30.00,SummerDesignDay
8,946053.1935054776
2,1, 8,21, 0,21,30.00,40.00,SummerDesignDay
8,1493253.1935054776
2,1, 8,21, 0,21,40.00,50.00,SummerDesignDay
8,1493253.1935054776
2,1, 8,21, 0,21,50.00,60.00,SummerDesignDay
8,1493253.1935054776
2,1, 8,21, 0,22, 0.00,10.00,SummerDesignDay
8,1493253.1935054776
2,1, 8,21, 0,22,10.00,20.00,SummerDesignDay
8,1493253.1935054776
2,1, 8,21, 0,22,20.00,30.00,SummerDesignDay
8,1493253.1935054776
2,1, 8,21, 0,22,30.00,40.00,SummerDesignDay
8,1493253.1935054776
2,1, 8,21, 0,22,40.00,50.00,SummerDesignDay
8,1493253.1935054776
2,1, 8,21, 0,22,50.00,60.00,SummerDesignDay
8,1493253.1935054776
2,1, 8,21, 0,23, 0.00,10.00,SummerDesignDay
8,1493253.1935054776
2,1, 8,21, 0,23,10.00,20.00,SummerDesignDay
8,1493253.1935054776
2,1, 8,21, 0,23,20.00,30.00,SummerDesignDay
8,1493253.1935054776
2,1, 8,21, 0,23,30.00,40.00,SummerDesignDay
8,1493253.1935054776
2,1, 8,21, 0,23,40.00,50.00,SummerDesignDay
8,1493253.1935054776
2,1, 8,21, 0,23,50.00,60.00,SummerDesignDay
8,1493253.1935054776
2,1, 8,21, 0,24, 0.00,10.00,SummerDesignDay
8,1493253.1935054776
2,1, 8,21, 0,24,10.00,20.00,SummerDesignDay
8,1493253.1935054776
2,1, 8,21, 0,24,20.00,30.00,SummerDesignDay
8,1493253.1935054776
2,1, 8,21, 0,24,30.00,40.00,SummerDesignDay
8,1493253.1935054776
2,1, 8,21, 0,24,40.00,50.00,SummerDesignDay
8,1493253.1935054776
2,1, 8,21, 0,24,50.00,60.00,SummerDesignDay
8,1493253.1935054776
1,KODIAK ANN CLG .4% CONDNS WB=>MDB HVAC Sizing Pass 1,  57.75,-152.49,  -9.00,  34.00
2,1, 8,21, 0, 1, 0.00,10.00,SummerDesignDay
8,1307799.1935054776
2,1, 8,21, 0, 1,10.00,20.00,SummerDesignDay
8,1307799.1935054776
2,1, 8,21, 0, 1,20.00,30.00,SummerDesignDay
8,1307799.1935054776
2,1, 8,21, 0, 1,30.00,40.00,SummerDesignDay
8,1307799.1935054776
2,1, 8,21, 0, 1,40.00,50.00,SummerDesignDay
8,1307799.1935054776
2,1, 8,21, 0, 1,50.00,60.00,SummerDesignDay
8,1307799.1935054776
2,1, 8,21, 0, 2, 0.00,10.00,SummerDesignDay
8,1307799.1935054776
2,1, 8,21, 0, 2,10.00,20.00,SummerDesignDay
8,1307799.1935054776
2,1, 8,21, 0, 2,20.00,30.00,SummerDesignDay
8,1307799.1935054776
2,1, 8,21, 0, 2,30.00,40.00,SummerDesignDay
8,1307799.1935054776
2,1, 8,21, 0, 2,40.00,50.00,SummerDesignDay
8,1307799.1935054776
2,1, 8,21, 0, 2,50.00,60.00,SummerDesignDay
8,1307799.1935054776
2,1, 8,21, 0, 3, 0.00,10.00,SummerDesignDay
8,1307799.1935054776
2,1, 8,21, 0, 3,10.00,20.00,SummerDesignDay
8,1307799.1935054776
2,1, 8,21, 0, 3,20.00,30.00,SummerDesignDay
8,1307799.1935054776
2,1, 8,21, 0, 3,30.00,40.00,SummerDesignDay
8,1307799.1935054776
2,1, 8,21, 0, 3,40.00,50.00,SummerDesignDay
8,1307799.1935054776
2,1, 8,21, 0, 3,50.00,60.00,SummerDesignDay
8,1307799.1935054776
2,1, 8,21, 0, 4, 0.00,10.00,SummerDesignDay
8,1307799.1935054776
2,1, 8,21, 0, 4,10.00,20.00,SummerDesignDay
8,1307799.1935054776
2,1, 8,21, 0, 4,20.00,30.00,SummerDesignDay
8,1307799.1935054776
2,1, 8,21, 0, 4,30.00,40.00,SummerDesignDay
8,1307799.1935054776
2,1, 8,21, 0, 4,40.00,50.00,SummerDesignDay
8,1307799.1935054776
2,1, 8,21, 0, 4,50.00,60.00,SummerDesignDay
8,1307799.1935054776
2,1, 8,21, 0, 5, 0.00,10.00,SummerDesignDay
8,1307799.1935054776
2,1, 8,21, 0, 5,10.00,20.00,SummerDesignDay
8,1307799.1935054776
2,1, 8,21, 0, 5,20.00,30.00,SummerDesignDay
8,1307799.1935054776
2,1, 8,21, 0, 5,30.00,40.00,SummerDesignDay
8,1307799.1935054776
2,1, 8,21, 0, 5,40.00,50.00,SummerDesignDay
8,1307799.1935054776
2,1, 8,21, 0, 5,50.00,60.00,SummerDesignDay
8,2562515.6201708135
2,1, 8,21, 0, 6, 0.00,10.00,SummerDesignDay
8,1307799.1935054776
2,1, 8,21, 0, 6,10.00,20.00,SummerDesignDay
8,1307799.1935054776
2,1, 8,21, 0, 6,20.00,30.00,SummerDesignDay
8,1307799.1935054776
2,1, 8,21, 0, 6,30.00,40.00,SummerDesignDay
8,1307799.1935054776
2,1, 8,21, 0, 6,40.00,50.00,SummerDesignDay
8,1307799.1935054776
2,1, 8,21, 0, 6,50.00,60.00,SummerDesignDay
8,946053.1935054776
2,1, 8,21, 0, 7, 0.00,10.00,SummerDesignDay
8,946053.1935054776
2,1, 8,21, 0, 7,10.00,20.00,SummerDesignDay
8,946053.1935054776
2,1, 8,21, 0, 7,20.00,30.00,SummerDesignDay
8,946053.1935054776
2,1, 8,21, 0, 7,30.00,40.00,SummerDesignDay
8,946053.1935054776
2,1, 8,21, 0, 7,40.00,50.00,SummerDesignDay
8,946053.1935054776
2,1, 8,21, 0, 7,50.00,60.00,SummerDesignDay
8,946053.1935054776
2,1, 8,21, 0, 8, 0.00,10.00,SummerDesignDay
8,946053.1935054776
2,1, 8,21, 0, 8,10.00,20.00,SummerDesignDay
8,946053.1935054776
2,1, 8,21, 0, 8,20.00,30.00,SummerDesignDay
8,946053.1935054776
2,1, 8,21, 0, 8,30.00,40.00,SummerDesignDay
8,946053.1935054776
2,1, 8,21, 0, 8,40.00,50.00,SummerDesignDay
8,946053.1935054776
2,1, 8,21, 0, 8,50.00,60.00,SummerDesignDay
8,946053.1935054776
2,1, 8,21, 0, 9, 0.00,10.00,SummerDesignDay
8,1037645.4251132826
2,1, 8,21, 0, 9,10.00,20.00,SummerDesignDay
8,1037645.4251132826
2,1, 8,21, 0, 9,20.00,30.00,SummerDesignDay
8,1037645.4251132826
2,1, 8,21, 0, 9,30.00,40.00,SummerDesignDay
8,1037645.4251132826
2,1, 8,21, 0, 9,40.00,50.00,SummerDesignDay
8,1037645.4251132826
2,1, 8,21, 0, 9,50.00,60.00,SummerDesignDay
8,1037645.4251132826
2,1, 8,21, 0,10, 0.00,10.00,SummerDesignDay
8,1037645.4251132826
2,1, 8,21, 0,10,10.00,20.00,SummerDesignDay
8,1037645.4251132826
2,1, 8,21, 0,10,20.00,30.00,SummerDesignDay
8,1037645.4251132826
2,1, 8,21, 0,10,30.00,40.00,SummerDesignDay
8,1037645.4251132826
2,1, 8,21, 0,10,40.00,50.00,SummerDesignDay
8,2292350.2790981084
2,1, 8,21, 0,10,50.00,60.00,SummerDesignDay
8,1037645.4251132826
2,1, 8,21, 0,11, 0.00,10.00,SummerDesignDay
8,1037645.4251132826
2,1, 8,21, 0,11,10.00,20.00,SummerDesignDay
8,1037645.4251132826
2,1, 8,21, 0,11,20.00,30.00,SummerDesignDay
8,1037645.4251132826
2,1, 8,21, 0,11,30.00,40.00,SummerDesignDay
8,1037645.4251132826
2,1, 8,21, 0,11,40.00,50.00,SummerDesignDay
8,1037645.4251132826
2,1, 8,21, 0,11,50.00,60.00,SummerDesignDay
8,1037645.4251132826
2,1, 8,21, 0,12, 0.00,10.00,SummerDesignDay
8,1037645.4251132826
2,1, 8,21, 0,12,10.00,20.00,SummerDesignDay
8,1037645.4251132826
2,1, 8,21, 0,12,20.00,30.00,SummerDesignDay
8,1037645.4251132826
2,1, 8,21, 0,12,30.00,40.00,SummerDesignDay
8,1037645.4251132826
2,1, 8,21, 0,12,40.00,50.00,SummerDesignDay
8,1037645.4251132826
2,1, 8,21, 0,12,50.00,60.00,SummerDesignDay
8,1037645.4251132826
2,1, 8,21, 0,13, 0.00,10.00,SummerDesignDay
8,946053.1935054776
2,1, 8,21, 0,13,10.00,20.00,SummerDesignDay
8,946053.1935054776
2,1, 8,21, 0,13,20.00,30.00,SummerDesignDay
8,946053.1935054776
2,1, 8,21, 0,13,30.00,40.00,SummerDesignDay
8,946053.1935054776
2,1, 8,21, 0,13,40.00,50.00,SummerDesignDay
8,946053.1935054776
2,1, 8,21, 0,13,50.00,60.00,SummerDesignDay
8,946053.1935054776
2,1, 8,21, 0,14, 0.00,10.00,SummerDesignDay
8,1037645.4251132826
2,1, 8,21, 0,14,10.00,20.00,SummerDesignDay
8,1037645.4251132826
2,1, 8,21, 0,14,20.00,30.00,SummerDesignDay
8,1037645.4251132826
2,1, 8,21, 0,14,30.00,40.00,SummerDesignDay
8,1037645.4251132826
2,1, 8,21, 0,14,40.00,50.00,SummerDesignDay
8,1037645.4251132826
2,1, 8,21, 0,14,50.00,60.00,SummerDesignDay
8,1037645.4251132826
2,1, 8,21, 0,15, 0.00,10.00,SummerDesignDay
8,1037645.4251132826
2,1, 8,21, 0,15,10.00,20.00,SummerDesignDay
8,1037645.4251132826
2,1, 8,21, 0,15,20.00,30.00,SummerDesignDay
8,1037645.4251132826
2,1, 8,21, 0,15,30.00,40.00,SummerDesignDay
8,2292338.7113996767
2,1, 8,21, 0,15,40.00,50.00,SummerDesignDay
8,1037645.4251132826
2,1, 8,21, 0,15,50.00,60.00,SummerDesignDay
8,1037645.4251132826
2,1, 8,21, 0,16, 0.00,10.00,SummerDesignDay
8,1037645.4251132826
2,1, 8,21, 0,16,10.00,20.00,SummerDesignDay
8,1037645.4251132826
2,1, 8,21, 0,16,20.00,30.00,SummerDesignDay
8,1037645.4251132826
2,1, 8,21, 0,16,30.00,40.00,SummerDesignDay
8,1037645.4251132826
2,1, 8,21, 0,16,40.00,50.00,SummerDesignDay
8,1037645.4251132826
2,1, 8,21, 0,16,50.00,60.00,SummerDesignDay
8,1037645.4251132826
2,1, 8,21, 0,17, 0.00,10.00,SummerDesignDay
8,1037645.4251132826
2,1, 8,21, 0,17,10.00,20.00,SummerDesignDay
8,1037645.4251132826
2,1, 8,21, 0,17,20.00,30.00,SummerDesignDay
8,1037645.4251132826
2,1, 8,21, 0,17,30.00,40.00,SummerDesignDay
8,1037645.4251132826
2,1, 8,21, 0,17,40.00,50.00,SummerDesignDay
8,1037645.4251132826
2,1, 8,21, 0,17,50.00,60.00,SummerDesignDay
8,1037645.4251132826
2,1, 8,21, 0,18, 0.00,10.00,SummerDesignDay
8,946053.1935054776
2,1, 8,21, 0,18,10.00,20.00,SummerDesignDay
8,946053.1935054776
2,1, 8,21, 0,18,20.00,30.00,SummerDesignDay
8,946053.1935054776
2,1, 8,21, 0,18,30.00,40.00,SummerDesignDay
8,946053.1935054776
2,1, 8,21, 0,18,40.00,50.00,SummerDesignDay
8,946053.1935054776
2,1, 8,21, 0,18,50.00,60.00,SummerDesignDay
8,946053.1935054776
2,1, 8,21, 0,19, 0.00,10.00,SummerDesignDay
8,946053.1935054776
2,1, 8,21, 0,19,10.00,20.00,SummerDesignDay
8,946053.1935054776
2,1, 8,21, 0,19,20.00,30.00,SummerDesignDay
8,946053.1935054776
2,1, 8,21, 0,19,30.00,40.00,SummerDesignDay
8,946053.1935054776
2,1, 8,21, 0,19,40.00,50.00,SummerDesignDay
8,946053.1935054776
2,1, 8,21, 0,19,50.00,60.00,SummerDesignDay
8,946053.1935054776
2,1, 8,21, 0,20, 0.00,10.00,SummerDesignDay
8,946053.1935054776
2,1, 8,21, 0,20,10.00,20.00,SummerDesignDay
8,946053.1935054776
2,1, 8,21, 0,20,20.00,30.00,SummerDesignDay
8,946053.1935054776
2,1, 8,21, 0,20,30.00,40.00,SummerDesignDay
8,2200769.8332779068
2,1, 8,21, 0,20,40.00,50.00,SummerDesignDay
8,946053.1935054776
2,1, 8,21, 0,20,50.00,60.00,SummerDesignDay
8,946053.1935054776
2,1, 8,21, 0,21, 0.00,10.00,SummerDesignDay
8,946053.1935054776
2,1, 8,21, 0,21,10.00,20.00,SummerDesignDay
8,946053.1935054776
2,1, 8,21, 0,21,20.00,30.00,SummerDesignDay
8,946053.1935054776
2,1, 8,21, 0,21,30.00,40.00,SummerDesignDay
8,1493253.1935054776
2,1, 8,21, 0,21,40.00,50.00,SummerDesignDay
8,1493253.1935054776
2,1, 8,21, 0,21,50.00,60.00,SummerDesignDay
8,1493253.1935054776
2,1, 8,21, 0,22, 0.00,10.00,SummerDesignDay
8,1493253.1935054776
2,1, 8,21, 0,22,10.00,20.00,SummerDesignDay
8,1493253.1935054776
2,1, 8,21, 0,22,20.00,30.00,SummerDesignDay
8,1493253.1935054776
2,1, 8,21, 0,22,30.00,40.00,SummerDesignDay
8,1493253.1935054776
2,1, 8,21, 0,22,40.00,50.00,SummerDesignDay
8,1493253.1935054776
2,1, 8,21, 0,22,50.00,60.00,SummerDesignDay
8,1493253.1935054776
2,1, 8,21, 0,23, 0.00,10.00,SummerDesignDay
8,1493253.1935054776
2,1, 8,21, 0,23,10.00,20.00,SummerDesignDay
8,1493253.1935054776
2,1, 8,21, 0,23,20.00,30.00,SummerDesignDay
8,1493253.1935054776
2,1, 8,21, 0,23,30.00,40.00,SummerDesignDay
8,1493253.1935054776
2,1, 8,21, 0,23,40.00,50.00,SummerDesignDay
8,1493253.1935054776
2,1, 8,21, 0,23,50.00,60.00,SummerDesignDay
8,1493253.1935054776
2,1, 8,21, 0,24, 0.00,10.00,SummerDesignDay
8,1493253.1935054776
2,1, 8,21, 0,24,10.00,20.00,SummerDesignDay
8,1493253.1935054776
2,1, 8,21, 0,24,20.00,30.00,SummerDesignDay
8,1493253.1935054776
2,1, 8,21, 0,24,30.00,40.00,SummerDesignDay
8,1493253.1935054776
2,1, 8,21, 0,24,40.00,50.00,SummerDesignDay
8,1493253.1935054776
2,1, 8,21, 0,24,50.00,60.00,SummerDesignDay
8,1493253.1935054776
1,KODIAK ANN HTG 99.6% CONDNS DB HVAC Sizing Pass 1,  57.75,-152.49,  -9.00,  34.00
2,1, 1,21, 0, 1, 0.00,10.00,WinterDesignDay
8,734876.7807054787
2,1, 1,21, 0, 1,10.00,20.00,WinterDesignDay
8,734876.7807054787
2,1, 1,21, 0, 1,20.00,30.00,WinterDesignDay
8,734876.7807054787
2,1, 1,21, 0, 1,30.00,40.00,WinterDesignDay
8,734876.7807054787
2,1, 1,21, 0, 1,40.00,50.00,WinterDesignDay
8,734876.7807054787
2,1, 1,21, 0, 1,50.00,60.00,WinterDesignDay
8,734876.7807054787
2,1, 1,21, 0, 2, 0.00,10.00,WinterDesignDay
8,734876.7807054787
2,1, 1,21, 0, 2,10.00,20.00,WinterDesignDay
8,734876.7807054787
2,1, 1,21, 0, 2,20.00,30.00,WinterDesignDay
8,734876.7807054787
2,1, 1,21, 0, 2,30.00,40.00,WinterDesignDay
8,734876.7807054787
2,1, 1,21, 0, 2,40.00,50.00,WinterDesignDay
8,734876.7807054787
2,1, 1,21, 0, 2,50.00,60.00,WinterDesignDay
8,734876.7807054787
2,1, 1,21, 0, 3, 0.00,10.00,WinterDesignDay
8,734876.7807054787
2,1, 1,21, 0, 3,10.00,20.00,WinterDesignDay
8,734876.7807054787
2,1, 1,21, 0, 3,20.00,30.00,WinterDesignDay
8,734876.7807054787
2,1, 1,21, 0, 3,30.00,40.00,WinterDesignDay
8,734876.7807054787
2,1, 1,21, 0, 3,40.00,50.00,WinterDesignDay
8,734876.7807054787
2,1, 1,21, 0, 3,50.00,60.00,WinterDesignDay
8,734876.7807054787
2,1, 1,21, 0, 4, 0.00,10.00,WinterDesignDay
8,734876.7807054787
2,1, 1,21, 0, 4,10.00,20.00,WinterDesignDay
8,734876.7807054787
2,1, 1,21, 0, 4,20.00,30.00,WinterDesignDay
8,734876.7807054787
2,1, 1,21, 0, 4,30.00,40.00,WinterDesignDay
8,734876.7807054787
2,1, 1,21, 0, 4,40.00,50.00,WinterDesignDay
8,734876.7807054787
2,1, 1,21, 0, 4,50.00,60.00,WinterDesignDay
8,734876.7807054787
2,1, 1,21, 0, 5, 0.00,10.00,WinterDesignDay
8,734876.7807054787
2,1, 1,21, 0, 5,10.00,20.00,WinterDesignDay
8,734876.7807054787
2,1, 1,21, 0, 5,20.00,30.00,WinterDesignDay
8,734876.7807054787
2,1, 1,21, 0, 5,30.00,40.00,WinterDesignDay
8,734876.7807054787
2,1, 1,21, 0, 5,40.00,50.00,WinterDesignDay
8,734876.7807054787
2,1, 1,21, 0, 5,50.00,60.00,WinterDesignDay
8,1989593.2073708146
2,1, 1,21, 0, 6, 0.00,10.00,WinterDesignDay
8,734876.7807054787
2,1, 1,21, 0, 6,10.00,20.00,WinterDesignDay
8,734876.7807054787
2,1, 1,21, 0, 6,20.00,30.00,WinterDesignDay
8,734876.7807054787
2,1, 1,21, 0, 6,30.00,40.00,WinterDesignDay
8,734876.7807054787
2,1, 1,21, 0, 6,40.00,50.00,WinterDesignDay
8,734876.7807054787
2,1, 1,21, 0, 6,50.00,60.00,WinterDesignDay
8,734876.7807054787
2,1, 1,21, 0, 7, 0.00,10.00,WinterDesignDay
8,920330.7807054787
2,1, 1,21, 0, 7,10.00,20.00,WinterDesignDay
8,920330.7807054787
2,1, 1,21, 0, 7,20.00,30.00,WinterDesignDay
8,920330.7807054787
2,1, 1,21, 0, 7,30.00,40.00,WinterDesignDay
8,920330.7807054787
2,1, 1,21, 0, 7,40.00,50.00,WinterDesignDay
8,920330.7807054787
2,1, 1,21, 0, 7,50.00,60.00,WinterDesignDay
8,920330.7807054787
2,1, 1,21, 0, 8, 0.00,10.00,WinterDesignDay
8,920330.7807054787
2,1, 1,21, 0, 8,10.00,20.00,WinterDesignDay
8,920330.7807054787
2,1, 1,21, 0, 8,20.00,30.00,WinterDesignDay
8,920330.7807054787
2,1, 1,21, 0, 8,30.00,40.00,WinterDesignDay
8,920330.7807054787
2,1, 1,21, 0, 8,40.00,50.00,WinterDesignDay
8,920330.7807054787
2,1, 1,21, 0, 8,50.00,60.00,WinterDesignDay
8,920330.7807054787
2,1, 1,21, 0, 9, 0.00,10.00,WinterDesignDay
8,1011923.0123132837
2,1, 1,21, 0, 9,10.00,20.00,WinterDesignDay
8,1011923.0123132837
2,1, 1,21, 0, 9,20.00,30.00,WinterDesignDay
8,1011923.0123132837
2,1, 1,21, 0, 9,30.00,40.00,WinterDesignDay
8,1011923.0123132837
2,1, 1,21, 0, 9,40.00,50.00,WinterDesignDay
8,1011923.0123132837
2,1, 1,21, 0, 9,50.00,60.00,WinterDesignDay
8,1011923.0123132837
2,1, 1,21, 0,10, 0.00,10.00,WinterDesignDay
8,1011923.0123132837
2,1, 1,21, 0,10,10.00,20.00,WinterDesignDay
8,1011923.0123132837
2,1, 1,21, 0,10,20.00,30.00,WinterDesignDay
8,1011923.0123132837
2,1, 1,21, 0,10,30.00,40.00,WinterDesignDay
8,1011923.0123132837
2,1, 1,21, 0,10,40.00,50.00,WinterDesignDay
8,1719427.8662981095
2,1, 1,21, 0,10,50.00,60.00,WinterDesignDay
8,464723.01231328363
2,1, 1,21, 0,11, 0.00,10.00,WinterDesignDay
8,464723.01231328363
2,1, 1,21, 0,11,10.00,20.00,WinterDesignDay
8,464723.01231328363
2,1, 1,21, 0,11,20.00,30.00,WinterDesignDay
8,464723.01231328363
2,1, 1,21, 0,11,30.00,40.00,WinterDesignDay
8,464723.01231328363
2,1, 1,21, 0,11,40.00,50.00,WinterDesignDay
8,464723.01231328363
2,1, 1,21, 0,11,50.00,60.00,WinterDesignDay
8,464723.01231328363
2,1, 1,21, 0,12, 0.00,10.00,WinterDesignDay
8,464723.01231328363
2,1, 1,21, 0,12,10.00,20.00,WinterDesignDay
8,464723.01231328363
2,1, 1,21, 0,12,20.00,30.00,WinterDesignDay
8,464723.01231328363
2,1, 1,21, 0,12,30.00,40.00,WinterDesignDay
8,464723.01231328363
2,1, 1,21, 0,12,40.00,50.00,WinterDesignDay
8,464723.01231328363
2,1, 1,21, 0,12,50.00,60.00,WinterDesignDay
8,464723.01231328363
2,1, 1,21, 0,13, 0.00,10.00,WinterDesignDay
8,373130.7807054787
2,1, 1,21, 0,13,10.00,20.00,WinterDesignDay
8,373130.7807054787
2,1, 1,21, 0,13,20.00,30.00,WinterDesignDay
8,373130.7807054787
2,1, 1,21, 0,13,30.00,40.00,WinterDesignDay
8,373130.7807054787
2,1, 1,21, 0,13,40.00,50.00,WinterDesignDay
8,373130.7807054787
2,1, 1,21, 0,13,50.00,60.00,WinterDesignDay
8,373130.7807054787
2,1, 1,21, 0,14, 0.00,10.00,WinterDesignDay
8,464723.01231328363
2,1, 1,21, 0,14,10.00,20.00,WinterDesignDay
8,464723.01231328363
2,1, 1,21, 0,14,20.00,30.00,WinterDesignDay
8,464723.01231328363
2,1, 1,21, 0,14,30.00,40.00,WinterDesignDay
8,464723.01231328363
2,1, 1,21, 0,14,40.00,50.00,WinterDesignDay
8,464723.01231328363
2,1, 1,21, 0,14,50.00,60.00,WinterDesignDay
8,464723.01231328363
2,1, 1,21, 0,15, 0.00,10.00,WinterDesignDay
8,464723.01231328363
2,1, 1,21, 0,15,10.00,20.00,WinterDesignDay
8,464723.01231328363
2,1, 1,21, 0,15,20.00,30.00,WinterDesignDay
8,464723.01231328363
2,1, 1,21, 0,15,30.00,40.00,WinterDesignDay
8,1719416.2985996779
2,1, 1,21, 0,15,40.00,50.00,WinterDesignDay
8,464723.01231328363
2,1, 1,21, 0,15,50.00,60.00,WinterDesignDay
8,464723.01231328363
2,1, 1,21, 0,16, 0.00,10.00,WinterDesignDay
8,464723.01231328363
2,1, 1,21, 0,16,10.00,20.00,WinterDesignDay
8,464723.01231328363
2,1, 1,21, 0,16,20.00,30.00,WinterDesignDay
8,464723.01231328363
2,1, 1,21, 0,16,30.00,40.00,WinterDesignDay
8,464723.01231328363
2,1, 1,21, 0,16,40.00,50.00,WinterDesignDay
8,464723.01231328363
2,1, 1,21, 0,16,50.00,60.00,WinterDesignDay
8,464723.01231328363
2,1, 1,21, 0,17, 0.00,10.00,WinterDesignDay
8,464723.01231328363
2,1, 1,21, 0,17,10.00,20.00,WinterDesignDay
8,464723.01231328363
2,1, 1,21, 0,17,20.00,30.00,WinterDesignDay
8,464723.01231328363
2,1, 1,21, 0,17,30.00,40.00,WinterDesignDay
8,464723.01231328363
2,1, 1,21, 0,17,40.00,50.00,WinterDesignDay
8,464723.01231328363
2,1, 1,21, 0,17,50.00,60.00,WinterDesignDay
8,1011923.0123132837
2,1, 1,21, 0,18, 0.00,10.00,WinterDesignDay
8,920330.7807054787
2,1, 1,21, 0,18,10.00,20.00,WinterDesignDay
8,920330.7807054787
2,1, 1,21, 0,18,20.00,30.00,WinterDesignDay
8,920330.7807054787
2,1, 1,21, 0,18,30.00,40.00,WinterDesignDay
8,920330.7807054787
2,1, 1,21, 0,18,40.00,50.00,WinterDesignDay
8,920330.7807054787
2,1, 1,21, 0,18,50.00,60.00,WinterDesignDay
8,920330.7807054787
2,1, 1,21, 0,19, 0.00,10.00,WinterDesignDay
8,920330.7807054787
2,1, 1,21, 0,19,10.00,20.00,WinterDesignDay
8,920330.7807054787
2,1, 1,21, 0,19,20.00,30.00,WinterDesignDay
8,920330.7807054787
2,1, 1,21, 0,19,30.00,40.00,WinterDesignDay
8,920330.7807054787
2,1, 1,21, 0,19,40.00,50.00,WinterDesignDay
8,920330.7807054787
2,1, 1,21, 0,19,50.00,60.00,WinterDesignDay
8,920330.7807054787
2,1, 1,21, 0,20, 0.00,10.00,WinterDesignDay
8,920330.7807054787
2,1, 1,21, 0,20,10.00,20.00,WinterDesignDay
8,920330.7807054787
2,1, 1,21, 0,20,20.00,30.00,WinterDesignDay
8,920330.7807054787
2,1, 1,21, 0,20,30.00,40.00,WinterDesignDay
8,2175047.420477908
2,1, 1,21, 0,20,40.00,50.00,WinterDesignDay
8,920330.7807054787
2,1, 1,21, 0,20,50.00,60.00,WinterDesignDay
8,920330.7807054787
2,1, 1,21, 0,21, 0.00,10.00,WinterDesignDay
8,920330.7807054787
2,1, 1,21, 0,21,10.00,20.00,WinterDesignDay
8,920330.7807054787
2,1, 1,21, 0,21,20.00,30.00,WinterDesignDay
8,920330.7807054787
2,1, 1,21, 0,21,30.00,40.00,WinterDesignDay
8,920330.7807054787
2,1, 1,21, 0,21,40.00,50.00,WinterDesignDay
8,920330.7807054787
2,1, 1,21, 0,21,50.00,60.00,WinterDesignDay
8,920330.7807054787
2,1, 1,21, 0,22, 0.00,10.00,WinterDesignDay
8,920330.7807054787
2,1, 1,21, 0,22,10.00,20.00,WinterDesignDay
8,920330.7807054787
2,1, 1,21, 0,22,20.00,30.00,WinterDesignDay
8,920330.7807054787
2,1, 1,21, 0,22,30.00,40.00,WinterDesignDay
8,920330.7807054787
2,1, 1,21, 0,22,40.00,50.00,WinterDesignDay
8,920330.7807054787
2,1, 1,21, 0,22,50.00,60.00,WinterDesignDay
8,920330.7807054787
2,1, 1,21, 0,23, 0.00,10.00,WinterDesignDay
8,920330.7807054787
2,1, 1,21, 0,23,10.00,20.00,WinterDesignDay
8,920330.7807054787
2,1, 1,21, 0,23,20.00,30.00,WinterDesignDay
8,920330.7807054787
2,1, 1,21, 0,23,30.00,40.00,WinterDesignDay
8,920330.7807054787
2,1, 1,21, 0,23,40.00,50.00,WinterDesignDay
8,920330.7807054787
2,1, 1,21, 0,23,50.00,60.00,WinterDesignDay
8,920330.7807054787
2,1, 1,21, 0,24, 0.00,10.00,WinterDesignDay
8,920330.7807054787
2,1, 1,21, 0,24,10.00,20.00,WinterDesignDay
8,920330.7807054787
2,1, 1,21, 0,24,20.00,30.00,WinterDesignDay
8,920330.7807054787
2,1, 1,21, 0,24,30.00,40.00,WinterDesignDay
8,920330.7807054787
2,1, 1,21, 0,24,40.00,50.00,WinterDesignDay
8,920330.7807054787
2,1, 1,21, 0,24,50.00,60.00,WinterDesignDay
8,920330.7807054787
1,KODIAK APRIL .4% CONDNS DB=>MCWB HVAC Sizing Pass 1,  57.75,-152.49,  -9.00,  34.00
2,1, 4,21, 0, 1, 0.00,10.00,SummerDesignDay
8,1307799.1935054776
2,1, 4,21, 0, 1,10.00,20.00,SummerDesignDay
8,1307799.1935054776
2,1, 4,21, 0, 1,20.00,30.00,SummerDesignDay
8,1307799.1935054776
2,1, 4,21, 0, 1,30.00,40.00,SummerDesignDay
8,1307799.1935054776
2,1, 4,21, 0, 1,40.00,50.00,SummerDesignDay
8,1307799.1935054776
2,1, 4,21, 0, 1,50.00,60.00,SummerDesignDay
8,1307799.1935054776
2,1, 4,21, 0, 2, 0.00,10.00,SummerDesignDay
8,1307799.1935054776
2,1, 4,21, 0, 2,10.00,20.00,SummerDesignDay
8,1307799.1935054776
2,1, 4,21, 0, 2,20.00,30.00,SummerDesignDay
8,1307799.1935054776
2,1, 4,21, 0, 2,30.00,40.00,SummerDesignDay
8,1307799.1935054776
2,1, 4,21, 0, 2,40.00,50.00,SummerDesignDay
8,1307799.1935054776
2,1, 4,21, 0, 2,50.00,60.00,SummerDesignDay
8,1307799.1935054776
2,1, 4,21, 0, 3, 0.00,10.00,SummerDesignDay
8,1307799.1935054776
2,1, 4,21, 0, 3,10.00,20.00,SummerDesignDay
8,1307799.1935054776
2,1, 4,21, 0, 3,20.00,30.00,SummerDesignDay
8,1307799.1935054776
2,1, 4,21, 0, 3,30.00,40.00,SummerDesignDay
8,1307799.1935054776