Program Version,EnergyPlus, Version 23.1.0-87ed9199d4, YMD=2023.06.01 11:04
1,5,Environment Title[],Latitude[deg],Longitude[deg],Time Zone[],Elevation[m]
2,8,Day of Simulation[],Month[],Day of Month[],DST Indicator[1=yes 0=no],Hour[],StartMinute[],EndMinute[],DayType
3,5,Cumulative Day of Simulation[],Month[],Day of Month[],DST Indicator[1=yes 0=no],DayType  ! When Daily Report Variables Requested
4,2,Cumulative Days of Simulation[],Month[]  ! When Monthly Report Variables Requested
5,1,Cumulative Days of Simulation[] ! When Run Period Report Variables Requested
6,1,Calendar Year of Simulation[] ! When Annual Report Variables Requested
8,1,Electricity:Facility [J] !TimeStep
3199,1,NaturalGas:Facility [J] !TimeStep
2444,1,DistrictHeating:Facility [J] !TimeStep
End of Data Dictionary
1,KODIAK ANN CLG .4% CONDNS DB=>MWB HVAC Sizing Pass 1,  57.75,-152.50,  -9.00,   5.00
2,1, 8,21, 0, 1, 0.00,10.00,SummerDesignDay
8,11173974.58509639
2444,0.0
3199,0.0
2,1, 8,21, 0, 1,10.00,20.00,SummerDesignDay
8,11173974.58509639
2444,0.0
3199,0.0
2,1, 8,21, 0, 1,20.00,30.00,SummerDesignDay
8,11173974.58509639
2444,0.0
3199,0.0
2,1, 8,21, 0, 1,30.00,40.00,SummerDesignDay
8,11173974.58509639
2444,0.0
3199,0.0
2,1, 8,21, 0, 1,40.00,50.00,SummerDesignDay
8,11173974.58509639
2444,0.0
3199,0.0
2,1, 8,21, 0, 1,50.00,60.00,SummerDesignDay
8,11173974.58509639
2444,0.0
3199,0.0
2,1, 8,21, 0, 2, 0.00,10.00,SummerDesignDay
8,11180119.212366385
2444,0.0
3199,0.0
2,1, 8,21, 0, 2,10.00,20.00,SummerDesignDay
8,11178964.812867835
2444,0.0
3199,0.0
2,1, 8,21, 0, 2,20.00,30.00,SummerDesignDay
8,11179837.31514128
2444,0.0
3199,0.0
2,1, 8,21, 0, 2,30.00,40.00,SummerDesignDay
8,11180583.668206507
2444,0.0
3199,682591.4963424796
2,1, 8,21, 0, 2,40.00,50.00,SummerDesignDay
8,11181089.285417123
2444,0.0
3199,1067568.2626090539
2,1, 8,21, 0, 2,50.00,60.00,SummerDesignDay
8,11181513.043663712
2444,0.0
3199,152692.35844283472
2,1, 8,21, 0, 3, 0.00,10.00,SummerDesignDay
8,11181958.384337928
2444,0.0
3199,0.0
2,1, 8,21, 0, 3,10.00,20.00,SummerDesignDay
8,11182350.354133882
2444,0.0
3199,0.0
2,1, 8,21, 0, 3,20.00,30.00,SummerDesignDay
8,11182694.435622467
2444,0.0
3199,0.0
2,1, 8,21, 0, 3,30.00,40.00,SummerDesignDay
8,11182995.497901913
2444,0.0
3199,0.0
2,1, 8,21, 0, 3,40.00,50.00,SummerDesignDay
8,11183257.730749901
2444,0.0
3199,0.0
2,1, 8,21, 0, 3,50.00,60.00,SummerDesignDay
8,11184191.667038608
2444,0.0
3199,0.0
2,1, 8,21, 0, 4, 0.00,10.00,SummerDesignDay
8,11186886.419827435
2444,0.0
3199,0.0
2,1, 8,21, 0, 4,10.00,20.00,SummerDesignDay
8,11186058.043575495
2444,0.0
3199,0.0
2,1, 8,21, 0, 4,20.00,30.00,SummerDesignDay
8,11186684.081606798
2444,0.0
3199,529831.9362016015
2,1, 8,21, 0, 4,30.00,40.00,SummerDesignDay
8,11186886.540736768
2444,0.0
3199,1067568.2626090539
2,1, 8,21, 0, 4,40.00,50.00,SummerDesignDay
8,11186965.703805743
2444,0.0
3199,305425.143887398
2,1, 8,21, 0, 4,50.00,60.00,SummerDesignDay
8,11186958.904275423
2444,0.0
3199,0.0
2,1, 8,21, 0, 5, 0.00,10.00,SummerDesignDay
8,11187039.490215424
2444,0.0
3199,0.0
2,1, 8,21, 0, 5,10.00,20.00,SummerDesignDay
8,11187053.214911059
2444,0.0
3199,0.0
2,1, 8,21, 0, 5,20.00,30.00,SummerDesignDay
8,11187006.77149209
2444,0.0
3199,0.0
2,1, 8,21, 0, 5,30.00,40.00,SummerDesignDay
8,11186905.771891844
2444,0.0
3199,0.0
2,1, 8,21, 0, 5,40.00,50.00,SummerDesignDay
8,11186754.87453759
2444,0.0
3199,0.0
2,1, 8,21, 0, 5,50.00,60.00,SummerDesignDay
8,12441274.304298429
2444,0.0
3199,0.0
2,1, 8,21, 0, 6, 0.00,10.00,SummerDesignDay
8,11976127.04864097
2444,0.0
3199,0.0
2,1, 8,21, 0, 6,10.00,20.00,SummerDesignDay
8,11173974.58509639
2444,0.0
3199,377021.32741270657
2,1, 8,21, 0, 6,20.00,30.00,SummerDesignDay
8,11219613.9005219
2444,0.0
3199,1067568.2626090539
2,1, 8,21, 0, 6,30.00,40.00,SummerDesignDay
8,11560601.222139502
2444,0.0
3199,458232.97884898004
2,1, 8,21, 0, 6,40.00,50.00,SummerDesignDay
8,11387493.877161078
2444,0.0
3199,0.0
2,1, 8,21, 0, 6,50.00,60.00,SummerDesignDay
8,10980934.357368117
2444,0.0
3199,0.0
2,1, 8,21, 0, 7, 0.00,10.00,SummerDesignDay
8,12123951.952129876
2444,0.0
3199,13384.379503015112
2,1, 8,21, 0, 7,10.00,20.00,SummerDesignDay
8,10870253.616944607
2444,0.0
3199,1067568.2626090539
2,1, 8,21, 0, 7,20.00,30.00,SummerDesignDay
8,11704931.932317264
2444,0.0
3199,1067568.2626090539
2,1, 8,21, 0, 7,30.00,40.00,SummerDesignDay
8,11679769.012005093
2444,0.0
3199,1067568.2626090539
2,1, 8,21, 0, 7,40.00,50.00,SummerDesignDay
8,11624480.47776053
2444,0.0
3199,1067568.2626090539
2,1, 8,21, 0, 7,50.00,60.00,SummerDesignDay
8,11740850.089584744
2444,0.0
3199,1067568.2626090539
2,1, 8,21, 0, 8, 0.00,10.00,SummerDesignDay
8,14475101.53220437
2444,0.0
3199,1067568.2626090539
2,1, 8,21, 0, 8,10.00,20.00,SummerDesignDay
8,13644372.777175741
2444,0.0
3199,1067568.2626090539
2,1, 8,21, 0, 8,20.00,30.00,SummerDesignDay
8,13749596.235996613
2444,0.0
3199,1067568.2626090539
2,1, 8,21, 0, 8,30.00,40.00,SummerDesignDay
8,13473705.169994583
2444,0.0
3199,630791.7207871369
2,1, 8,21, 0, 8,40.00,50.00,SummerDesignDay
8,13515613.835154656
2444,0.0
3199,0.0
2,1, 8,21, 0, 8,50.00,60.00,SummerDesignDay
8,13535501.23457468
2444,0.0
3199,485934.372099544
2,1, 8,21, 0, 9, 0.00,10.00,SummerDesignDay
8,13586811.270682551
2444,0.0
3199,1067568.2626090539
2,1, 8,21, 0, 9,10.00,20.00,SummerDesignDay
8,13663323.073548257
2444,0.0
3199,1067568.2626090539
2,1, 8,21, 0, 9,20.00,30.00,SummerDesignDay
8,13746332.508377733
2444,0.0
3199,1067568.2626090539
2,1, 8,21, 0, 9,30.00,40.00,SummerDesignDay
8,13838974.563695455
2444,0.0
3199,1067568.2626090539
2,1, 8,21, 0, 9,40.00,50.00,SummerDesignDay
8,13920475.963087669
2444,0.0
3199,1067568.2626090539
2,1, 8,21, 0, 9,50.00,60.00,SummerDesignDay
8,14005853.893434703
2444,0.0
3199,1067568.2626090539
2,1, 8,21, 0,10, 0.00,10.00,SummerDesignDay
8,14109619.43175831
2444,0.0
3199,1067568.2626090539
2,1, 8,21, 0,10,10.00,20.00,SummerDesignDay
8,14219322.758110313
2444,0.0
3199,1067568.2626090539
2,1, 8,21, 0,10,20.00,30.00,SummerDesignDay
8,14332781.369964095
2444,0.0
3199,1067568.2626090539
2,1, 8,21, 0,10,30.00,40.00,SummerDesignDay
8,14448448.689587105
2444,0.0
3199,1067568.2626090539
2,1, 8,21, 0,10,40.00,50.00,SummerDesignDay
8,15803139.042733159
2444,0.0
3199,1067568.2626090539
2,1, 8,21, 0,10,50.00,60.00,SummerDesignDay
8,14664463.750517773
2444,0.0
3199,1067568.2626090539
2,1, 8,21, 0,11, 0.00,10.00,SummerDesignDay
8,14774020.724916263
2444,0.0
3199,1067568.2626090539
2,1, 8,21, 0,11,10.00,20.00,SummerDesignDay
8,14864565.004192559
2444,0.0
3199,1067568.2626090539
2,1, 8,21, 0,11,20.00,30.00,SummerDesignDay
8,14968320.773869805
2444,0.0
3199,1067568.2626090539
2,1, 8,21, 0,11,30.00,40.00,SummerDesignDay
8,15061744.14452631
2444,0.0
3199,1067568.2626090539
2,1, 8,21, 0,11,40.00,50.00,SummerDesignDay
8,15155194.67408238
2444,0.0
3199,1067568.2626090539
2,1, 8,21, 0,11,50.00,60.00,SummerDesignDay
8,15243982.56999151
2444,0.0
3199,1067568.2626090539
2,1, 8,21, 0,12, 0.00,10.00,SummerDesignDay
8,15314199.54873996
2444,0.0
3199,1067568.2626090539
2,1, 8,21, 0,12,10.00,20.00,SummerDesignDay
8,15378471.639013404
2444,0.0
3199,1067568.2626090539
2,1, 8,21, 0,12,20.00,30.00,SummerDesignDay
8,15436446.671068728
2444,0.0
3199,1067568.2626090539
2,1, 8,21, 0,12,30.00,40.00,SummerDesignDay
8,15487778.95338893
2444,0.0
3199,1067568.2626090539
2,1, 8,21, 0,12,40.00,50.00,SummerDesignDay
8,15532480.496317929
2444,0.0
3199,1067568.2626090539
2,1, 8,21, 0,12,50.00,60.00,SummerDesignDay
8,15570660.430658702
2444,0.0
3199,1067568.2626090539
2,1, 8,21, 0,13, 0.00,10.00,SummerDesignDay
8,15597153.816364616
2444,0.0
3199,1067568.2626090539
2,1, 8,21, 0,13,10.00,20.00,SummerDesignDay
8,15618200.93392417
2444,0.0
3199,1067568.2626090539
2,1, 8,21, 0,13,20.00,30.00,SummerDesignDay
8,15634935.745285558
2444,0.0
3199,1067568.2626090539
2,1, 8,21, 0,13,30.00,40.00,SummerDesignDay
8,15648866.060409551
2444,0.0
3199,1067568.2626090539
2,1, 8,21, 0,13,40.00,50.00,SummerDesignDay
8,15661937.294318287
2444,0.0
3199,1067568.2626090539
2,1, 8,21, 0,13,50.00,60.00,SummerDesignDay
8,15676308.60331465
2444,0.0
3199,1067568.2626090539
2,1, 8,21, 0,14, 0.00,10.00,SummerDesignDay
8,15685873.5518255
2444,0.0
3199,1067568.2626090539
2,1, 8,21, 0,14,10.00,20.00,SummerDesignDay
8,15702449.591083894
2444,0.0
3199,1067568.2626090539
2,1, 8,21, 0,14,20.00,30.00,SummerDesignDay
8,15727495.050280977
2444,0.0
3199,1067568.2626090539
2,1, 8,21, 0,14,30.00,40.00,SummerDesignDay
8,15760537.664655957
2444,0.0
3199,1067568.2626090539
2,1, 8,21, 0,14,40.00,50.00,SummerDesignDay
8,15800639.624318099
2444,0.0
3199,1067568.2626090539
2,1, 8,21, 0,14,50.00,60.00,SummerDesignDay
8,15845897.687562816
2444,0.0
3199,1067568.2626090539
2,1, 8,21, 0,15, 0.00,10.00,SummerDesignDay
8,15879948.814261757
2444,0.0
3199,1067568.2626090539
2,1, 8,21, 0,15,10.00,20.00,SummerDesignDay
8,15915344.024494821
2444,0.0
3199,1067568.2626090539
2,1, 8,21, 0,15,20.00,30.00,SummerDesignDay
8,15950580.542954195
2444,0.0
3199,1067568.2626090539
2,1, 8,21, 0,15,30.00,40.00,SummerDesignDay
8,17239172.80707868
2444,0.0
3199,1067568.2626090539
2,1, 8,21, 0,15,40.00,50.00,SummerDesignDay
8,16015972.113465214
2444,0.0
3199,1067568.2626090539
2,1, 8,21, 0,15,50.00,60.00,SummerDesignDay
8,16044258.509619623
2444,0.0
3199,1067568.2626090539
2,1, 8,21, 0,16, 0.00,10.00,SummerDesignDay
8,16050826.622852016
2444,0.0
3199,1067568.2626090539
2,1, 8,21, 0,16,10.00,20.00,SummerDesignDay
8,16052561.6524263
2444,0.0
3199,1067568.2626090539
2,1, 8,21, 0,16,20.00,30.00,SummerDesignDay
8,16048831.405415265
2444,0.0
3199,1067568.2626090539
2,1, 8,21, 0,16,30.00,40.00,SummerDesignDay
8,16039167.203117963
2444,0.0
3199,1067568.2626090539
2,1, 8,21, 0,16,40.00,50.00,SummerDesignDay
8,16029428.80186032
2444,0.0
3199,1067568.2626090539
2,1, 8,21, 0,16,50.00,60.00,SummerDesignDay
8,16008685.296991004
2444,0.0
3199,1067568.2626090539
2,1, 8,21, 0,17, 0.00,10.00,SummerDesignDay
8,15991595.266024627
2444,0.0
3199,1067568.2626090539
2,1, 8,21, 0,17,10.00,20.00,SummerDesignDay
8,15950705.707803195
2444,0.0
3199,1067568.2626090539
2,1, 8,21, 0,17,20.00,30.00,SummerDesignDay
8,15902176.902319508
2444,0.0
3199,1067568.2626090539
2,1, 8,21, 0,17,30.00,40.00,SummerDesignDay
8,15846215.745269613
2444,0.0
3199,1067568.2626090539
2,1, 8,21, 0,17,40.00,50.00,SummerDesignDay
8,15799371.23980874
2444,0.0
3199,1067568.2626090539
2,1, 8,21, 0,17,50.00,60.00,SummerDesignDay
8,15728756.617304463
2444,0.0
3199,1067568.2626090539
2,1, 8,21, 0,18, 0.00,10.00,SummerDesignDay
8,15645393.486247856
2444,0.0
3199,1067568.2626090539
2,1, 8,21, 0,18,10.00,20.00,SummerDesignDay
8,15555223.397397758
2444,0.0
3199,61043.45455630885
2,1, 8,21, 0,18,20.00,30.00,SummerDesignDay
8,15459233.685875706
2444,0.0
3199,131372.79419542328
2,1, 8,21, 0,18,30.00,40.00,SummerDesignDay
8,15374942.766012017
2444,0.0
3199,1067568.2626090539
2,1, 8,21, 0,18,40.00,50.00,SummerDesignDay
8,15283962.478806384
2444,0.0
3199,1067568.2626090539
2,1, 8,21, 0,18,50.00,60.00,SummerDesignDay
8,15176532.185804892
2444,0.0
3199,1067568.2626090539
2,1, 8,21, 0,19, 0.00,10.00,SummerDesignDay
8,15059320.444845833
2444,0.0
3199,1067568.2626090539
2,1, 8,21, 0,19,10.00,20.00,SummerDesignDay
8,14945796.376519585
2444,0.0
3199,1067568.2626090539
2,1, 8,21, 0,19,20.00,30.00,SummerDesignDay
8,14853048.031760115
2444,0.0
3199,1067568.2626090539
2,1, 8,21, 0,19,30.00,40.00,SummerDesignDay
8,14763406.11089793
2444,0.0
3199,1067568.2626090539
2,1, 8,21, 0,19,40.00,50.00,SummerDesignDay
8,14664271.319860792
2444,0.0
3199,603632.0872968067
2,1, 8,21, 0,19,50.00,60.00,SummerDesignDay
8,14570278.616884556
2444,0.0
3199,0.0
2,1, 8,21, 0,20, 0.00,10.00,SummerDesignDay
8,14558572.758993471
2444,0.0
3199,525022.2693856383
2,1, 8,21, 0,20,10.00,20.00,SummerDesignDay
8,14475075.228334613
2444,0.0
3199,1067568.2626090539
2,1, 8,21, 0,20,20.00,30.00,SummerDesignDay
8,14386431.064852048
2444,0.0
3199,1067568.2626090539
2,1, 8,21, 0,20,30.00,40.00,SummerDesignDay
8,15541700.666577756
2444,0.0
3199,1067568.2626090539
2,1, 8,21, 0,20,40.00,50.00,SummerDesignDay
8,14277784.18133155
2444,0.0
3199,1067568.2626090539
2,1, 8,21, 0,20,50.00,60.00,SummerDesignDay
8,14144573.524676545
2444,0.0
3199,1067568.2626090539
2,1, 8,21, 0,21, 0.00,10.00,SummerDesignDay
8,14136141.67495369
2444,0.0
3199,208094.72185610046
2,1, 8,21, 0,21,10.00,20.00,SummerDesignDay
8,14078601.913151592
2444,0.0
3199,0.0
2,1, 8,21, 0,21,20.00,30.00,SummerDesignDay
8,13979023.745544285
2444,0.0
3199,859957.4375781599
2,1, 8,21, 0,21,30.00,40.00,SummerDesignDay
8,14318809.78184059
2444,0.0
3199,1067568.2626090539
2,1, 8,21, 0,21,40.00,50.00,SummerDesignDay
8,14180218.864760485
2444,0.0
3199,1067568.2626090539
2,1, 8,21, 0,21,50.00,60.00,SummerDesignDay
8,14062452.128638748
2444,0.0
3199,1067568.2626090539
2,1, 8,21, 0,22, 0.00,10.00,SummerDesignDay
8,13959468.262645371
2444,0.0
3199,1067568.2626090539
2,1, 8,21, 0,22,10.00,20.00,SummerDesignDay
8,13868359.263119923
2444,0.0
3199,766336.8842627457
2,1, 8,21, 0,22,20.00,30.00,SummerDesignDay
8,13787018.378985211
2444,0.0
3199,0.0
2,1, 8,21, 0,22,30.00,40.00,SummerDesignDay
8,13713648.549021909
2444,0.0
3199,55289.62159500514
2,1, 8,21, 0,22,40.00,50.00,SummerDesignDay
8,13647032.182196364
2444,0.0
3199,1067568.2626090539
2,1, 8,21, 0,22,50.00,60.00,SummerDesignDay
8,13585780.845170118
2444,0.0
3199,1067568.2626090539
2,1, 8,21, 0,23, 0.00,10.00,SummerDesignDay
8,11360066.23685512
2444,0.0
3199,1067568.2626090539
2,1, 8,21, 0,23,10.00,20.00,SummerDesignDay
8,11360066.23685512
2444,0.0
3199,1067568.2626090539
2,1, 8,21, 0,23,20.00,30.00,SummerDesignDay
8,11360066.23685512
2444,0.0
3199,391262.10409649793
2,1, 8,21, 0,23,30.00,40.00,SummerDesignDay
8,11360066.23685512
2444,0.0
3199,0.0
2,1, 8,21, 0,23,40.00,50.00,SummerDesignDay
8,11360066.23685512
2444,0.0
3199,335515.197757472
2,1, 8,21, 0,23,50.00,60.00,SummerDesignDay
8,11360066.23685512
2444,0.0
3199,1067568.2626090539
2,1, 8,21, 0,24, 0.00,10.00,SummerDesignDay
8,11360066.23685512
2444,0.0
3199,1067568.2626090539
2,1, 8,21, 0,24,10.00,20.00,SummerDesignDay
8,11360066.23685512
2444,0.0
3199,1067568.2626090539
2,1, 8,21, 0,24,20.00,30.00,SummerDesignDay
8,11360066.23685512
2444,0.0
3199,1005512.4089949956
2,1, 8,21, 0,24,30.00,40.00,SummerDesignDay
8,11360066.23685512
2444,0.0
3199,0.0
2,1, 8,21, 0,24,40.00,50.00,SummerDesignDay
8,11360066.23685512
2444,0.0
3199,0.0
2,1, 8,21, 0,24,50.00,60.00,SummerDesignDay
8,11360066.23685512
2444,0.0
3199,788852.996445279
1,KODIAK ANN CLG .4% CONDNS WB=>MDB HVAC Sizing Pass 1,  57.75,-152.50,  -9.00,   5.00
2,1, 8,21, 0, 1, 0.00,10.00,SummerDesignDay
8,11173974.58509639
2444,0.0
3199,0.0
2,1, 8,21, 0, 1,10.00,20.00,SummerDesignDay
8,11173974.58509639
2444,0.0
3199,0.0
2,1, 8,21, 0, 1,20.00,30.00,SummerDesignDay
8,11173974.58509639
2444,0.0
3199,0.0
2,1, 8,21, 0, 1,30.00,40.00,SummerDesignDay
8,11173974.58509639
2444,0.0
3199,0.0
2,1, 8,21, 0, 1,40.00,50.00,SummerDesignDay
8,11173974.58509639
2444,0.0
3199,0.0
2,1, 8,21, 0, 1,50.00,60.00,SummerDesignDay
8,11173974.58509639
2444,0.0
3199,0.0
2,1, 8,21, 0, 2, 0.00,10.00,SummerDesignDay
8,11173974.58509639
2444,0.0
3199,0.0
2,1, 8,21, 0, 2,10.00,20.00,SummerDesignDay
8,11173974.58509639
2444,0.0
3199,0.0
2,1, 8,21, 0, 2,20.00,30.00,SummerDesignDay
8,11173974.58509639
2444,0.0
3199,0.0
2,1, 8,21, 0, 2,30.00,40.00,SummerDesignDay
8,11173974.58509639
2444,0.0
3199,682591.4963424796
2,1, 8,21, 0, 2,40.00,50.00,SummerDesignDay
8,11173974.58509639
2444,0.0
3199,1067568.2626090539
2,1, 8,21, 0, 2,50.00,60.00,SummerDesignDay
8,11173974.58509639
2444,0.0
3199,152692.35844283472
2,1, 8,21, 0, 3, 0.00,10.00,SummerDesignDay
8,11173974.58509639
2444,0.0
3199,0.0
2,1, 8,21, 0, 3,10.00,20.00,SummerDesignDay
8,11173974.58509639
2444,0.0
3199,0.0
2,1, 8,21, 0, 3,20.00,30.00,SummerDesignDay
8,11173974.58509639
2444,0.0
3199,0.0
2,1, 8,21, 0, 3,30.00,40.00,SummerDesignDay
8,11173974.58509639
2444,0.0
3199,0.0
2,1, 8,21, 0, 3,40.00,50.00,SummerDesignDay
8,11173974.58509639
2444,0.0
3199,0.0
2,1, 8,21, 0, 3,50.00,60.00,SummerDesignDay
8,11173974.58509639
2444,0.0
3199,0.0
2,1, 8,21, 0, 4, 0.00,10.00,SummerDesignDay
8,11173974.58509639
2444,0.0
3199,0.0
2,1, 8,21, 0, 4,10.00,20.00,SummerDesignDay
8,11173974.58509639
2444,0.0
3199,0.0
2,1, 8,21, 0, 4,20.00,30.00,SummerDesignDay
8,11173974.58509639
2444,0.0
3199,529831.9362016015
2,1, 8,21, 0, 4,30.00,40.00,SummerDesignDay
8,11173974.58509639
2444,0.0
3199,1067568.2626090539
2,1, 8,21, 0, 4,40.00,50.00,SummerDesignDay
8,11173974.58509639
2444,0.0
3199,305425.143887398
2,1, 8,21, 0, 4,50.00,60.00,SummerDesignDay
8,11173974.58509639
2444,0.0
3199,0.0
2,1, 8,21, 0, 5, 0.00,10.00,SummerDesignDay
8,11173974.58509639
2444,0.0
3199,0.0
2,1, 8,21, 0, 5,10.00,20.00,SummerDesignDay
8,11173974.58509639
2444,0.0
3199,0.0
2,1, 8,21, 0, 5,20.00,30.00,SummerDesignDay
8,11173974.58509639
2444,0.0
3199,0.0
2,1, 8,21, 0, 5,30.00,40.00,SummerDesignDay
8,11173974.58509639
2444,0.0
3199,0.0
2,1, 8,21, 0, 5,40.00,50.00,SummerDesignDay
8,11173974.58509639
2444,0.0
3199,0.0
2,1, 8,21, 0, 5,50.00,60.00,SummerDesignDay
8,12428691.00744261
2444,0.0
3199,0.0
2,1, 8,21, 0, 6, 0.00,10.00,SummerDesignDay
8,11686398.756853951
2444,0.0
3199,0.0
2,1, 8,21, 0, 6,10.00,20.00,SummerDesignDay
8,11173974.58509639
2444,0.0
3199,377025.1684890134
2,1, 8,21, 0, 6,20.00,30.00,SummerDesignDay
8,11174915.030026801
2444,0.0
3199,1067568.2626090539
2,1, 8,21, 0, 6,30.00,40.00,SummerDesignDay
8,11320386.323642254
2444,0.0
3199,458229.13697788876
2,1, 8,21, 0, 6,40.00,50.00,SummerDesignDay
8,11307169.559681106
2444,0.0
3199,0.0
2,1, 8,21, 0, 6,50.00,60.00,SummerDesignDay
8,10855312.089801792
2444,0.0
3199,0.0
2,1, 8,21, 0, 7, 0.00,10.00,SummerDesignDay
8,11697814.633050993
2444,0.0
3199,13383.89962962957
2,1, 8,21, 0, 7,10.00,20.00,SummerDesignDay
8,10803561.590970319
2444,0.0
3199,1067568.2626090539
2,1, 8,21, 0, 7,20.00,30.00,SummerDesignDay
8,11363847.349600146
2444,0.0
3199,1067568.2626090539
2,1, 8,21, 0, 7,30.00,40.00,SummerDesignDay
8,11301651.225228926
2444,0.0
3199,1067568.2626090539
2,1, 8,21, 0, 7,40.00,50.00,SummerDesignDay
8,11262828.293931426
2444,0.0
3199,1067568.2626090539
2,1, 8,21, 0, 7,50.00,60.00,SummerDesignDay
8,11374905.419166522
2444,0.0
3199,1067568.2626090539
2,1, 8,21, 0, 8, 0.00,10.00,SummerDesignDay
8,13991109.10290202
2444,0.0
3199,1067568.2626090539
2,1, 8,21, 0, 8,10.00,20.00,SummerDesignDay
8,13127101.319718488
2444,0.0
3199,1067568.2626090539
2,1, 8,21, 0, 8,20.00,30.00,SummerDesignDay
8,13364667.36883331
2444,0.0
3199,1067568.2626090539
2,1, 8,21, 0, 8,30.00,40.00,SummerDesignDay
8,13049153.935679212
2444,0.0
3199,632768.0545323978
2,1, 8,21, 0, 8,40.00,50.00,SummerDesignDay
8,13130505.685666345
2444,0.0
3199,0.0
2,1, 8,21, 0, 8,50.00,60.00,SummerDesignDay
8,13163074.838233106
2444,0.0
3199,483793.82275219035
2,1, 8,21, 0, 9, 0.00,10.00,SummerDesignDay
8,13225625.138730329
2444,0.0
3199,1067568.2626090539
2,1, 8,21, 0, 9,10.00,20.00,SummerDesignDay
8,13317343.83872449
2444,0.0
3199,1067568.2626090539
2,1, 8,21, 0, 9,20.00,30.00,SummerDesignDay
8,13412950.766961636
2444,0.0
3199,1067568.2626090539
2,1, 8,21, 0, 9,30.00,40.00,SummerDesignDay
8,13495047.00169447
2444,0.0
3199,1067568.2626090539
2,1, 8,21, 0, 9,40.00,50.00,SummerDesignDay
8,13613429.931864614
2444,0.0
3199,1067568.2626090539
2,1, 8,21, 0, 9,50.00,60.00,SummerDesignDay
8,13686342.592076834
2444,0.0
3199,1067568.2626090539
2,1, 8,21, 0,10, 0.00,10.00,SummerDesignDay
8,13800660.261144705
2444,0.0
3199,1067568.2626090539
2,1, 8,21, 0,10,10.00,20.00,SummerDesignDay
8,13913784.20410437
2444,0.0
3199,1067568.2626090539
2,1, 8,21, 0,10,20.00,30.00,SummerDesignDay
8,14031057.880875604
2444,0.0
3199,1067568.2626090539
2,1, 8,21, 0,10,30.00,40.00,SummerDesignDay
8,14132914.711711805
2444,0.0
3199,1067568.2626090539
2,1, 8,21, 0,10,40.00,50.00,SummerDesignDay
8,15506211.370092334
2444,0.0
3199,1067568.2626090539
2,1, 8,21, 0,10,50.00,60.00,SummerDesignDay
8,14368826.737751227
2444,0.0
3199,1067568.2626090539
2,1, 8,21, 0,11, 0.00,10.00,SummerDesignDay
8,14479790.145377088
2444,0.0
3199,1067568.2626090539
2,1, 8,21, 0,11,10.00,20.00,SummerDesignDay
8,14570552.051321484
2444,0.0
3199,1067568.2626090539
2,1, 8,21, 0,11,20.00,30.00,SummerDesignDay
8,14674067.40390125
2444,0.0
3199,1067568.2626090539
2,1, 8,21, 0,11,30.00,40.00,SummerDesignDay
8,14767306.709460557
2444,0.0
3199,1067568.2626090539
2,1, 8,21, 0,11,40.00,50.00,SummerDesignDay
8,14859972.898858156
2444,0.0
3199,1067568.2626090539
2,1, 8,21, 0,11,50.00,60.00,SummerDesignDay
8,14948074.218818773
2444,0.0
3199,1067568.2626090539
2,1, 8,21, 0,12, 0.00,10.00,SummerDesignDay
8,15017016.344699694
2444,0.0
3199,1067568.2626090539
2,1, 8,21, 0,12,10.00,20.00,SummerDesignDay
8,15079804.632758955
2444,0.0
3199,1067568.2626090539
2,1, 8,21, 0,12,20.00,30.00,SummerDesignDay
8,15135946.091830848
2444,0.0
3199,1067568.2626090539
2,1, 8,21, 0,12,30.00,40.00,SummerDesignDay
8,15185288.407304497
2444,0.0
3199,1067568.2626090539
2,1, 8,21, 0,12,40.00,50.00,SummerDesignDay
8,15227836.623946603
2444,0.0
3199,1067568.2626090539
2,1, 8,21, 0,12,50.00,60.00,SummerDesignDay
8,15263767.32499744
2444,0.0
3199,1067568.2626090539
2,1, 8,21, 0,13, 0.00,10.00,SummerDesignDay
8,15288085.15574454
2444,0.0
3199,1067568.2626090539
2,1, 8,21, 0,13,10.00,20.00,SummerDesignDay
8,15306834.955701029
2444,0.0
3199,1067568.2626090539
2,1, 8,21, 0,13,20.00,30.00,SummerDesignDay
8,15321923.353017483
2444,0.0
3199,1067568.2626090539
2,1, 8,21, 0,13,30.00,40.00,SummerDesignDay
8,15334104.93988365
2444,0.0
3199,1067568.2626090539
2,1, 8,21, 0,13,40.00,50.00,SummerDesignDay
8,15345757.453654671
2444,0.0
3199,1067568.2626090539
2,1, 8,21, 0,13,50.00,60.00,SummerDesignDay
8,15358807.128289955
2444,0.0
3199,1067568.2626090539
2,1, 8,21, 0,14, 0.00,10.00,SummerDesignDay
8,15367632.791412147
2444,0.0
3199,1067568.2626090539
2,1, 8,21, 0,14,10.00,20.00,SummerDesignDay
8,15382966.813335093
2444,0.0
3199,1067568.2626090539
2,1, 8,21, 0,14,20.00,30.00,SummerDesignDay
8,15406719.744699778
2444,0.0
3199,1067568.2626090539
2,1, 8,21, 0,14,30.00,40.00,SummerDesignDay
8,15438867.610134995
2444,0.0
3199,1067568.2626090539
2,1, 8,21, 0,14,40.00,50.00,SummerDesignDay
8,15478408.124636084
2444,0.0
3199,1067568.2626090539
2,1, 8,21, 0,14,50.00,60.00,SummerDesignDay
8,15523305.844082674
2444,0.0
3199,1067568.2626090539
2,1, 8,21, 0,15, 0.00,10.00,SummerDesignDay
8,15557615.803430945
2444,0.0
3199,1067568.2626090539
2,1, 8,21, 0,15,10.00,20.00,SummerDesignDay
8,15593327.760162598
2444,0.0
3199,1067568.2626090539
2,1, 8,21, 0,15,20.00,30.00,SummerDesignDay
8,15628985.258513715
2444,0.0
3199,1067568.2626090539
2,1, 8,21, 0,15,30.00,40.00,SummerDesignDay
8,16918011.555081036
2444,0.0
3199,1067568.2626090539
2,1, 8,21, 0,15,40.00,50.00,SummerDesignDay
8,15695119.154378723
2444,0.0
3199,1067568.2626090539
2,1, 8,21, 0,15,50.00,60.00,SummerDesignDay
8,15723910.595384873
2444,0.0
3199,1067568.2626090539
2,1, 8,21, 0,16, 0.00,10.00,SummerDesignDay
8,15731172.448348459
2444,0.0
3199,1067568.2626090539
2,1, 8,21, 0,16,10.00,20.00,SummerDesignDay
8,15733844.26366451
2444,0.0
3199,1067568.2626090539
2,1, 8,21, 0,16,20.00,30.00,SummerDesignDay
8,15730985.487741549
2444,0.0
3199,1067568.2626090539
2,1, 8,21, 0,16,30.00,40.00,SummerDesignDay
8,15722362.142141623
2444,0.0
3199,1067568.2626090539
2,1, 8,21, 0,16,40.00,50.00,SummerDesignDay
8,15714011.746991148
2444,0.0
3199,1067568.2626090539
2,1, 8,21, 0,16,50.00,60.00,SummerDesignDay
8,15694027.026600441
2444,0.0
3199,1067568.2626090539
2,1, 8,21, 0,17, 0.00,10.00,SummerDesignDay
8,15660933.908227794
2444,0.0
3199,1067568.2626090539
2,1, 8,21, 0,17,10.00,20.00,SummerDesignDay
8,15637147.86093312
2444,0.0
3199,1067568.2626090539
2,1, 8,21, 0,17,20.00,30.00,SummerDesignDay
8,15589340.645404024
2444,0.0
3199,1067568.2626090539
2,1, 8,21, 0,17,30.00,40.00,SummerDesignDay
8,15533782.703841409
2444,0.0
3199,1067568.2626090539
2,1, 8,21, 0,17,40.00,50.00,SummerDesignDay
8,15487339.793747028
2444,0.0
3199,1067568.2626090539
2,1, 8,21, 0,17,50.00,60.00,SummerDesignDay
8,15417221.770213434
2444,0.0
3199,1067568.2626090539
2,1, 8,21, 0,18, 0.00,10.00,SummerDesignDay
8,15334589.693617178
2444,0.0
3199,1067568.2626090539
2,1, 8,21, 0,18,10.00,20.00,SummerDesignDay
8,15245403.568759805
2444,0.0
3199,61769.42066253551
2,1, 8,21, 0,18,20.00,30.00,SummerDesignDay
8,15150685.993387647
2444,0.0
3199,130648.63364221263
2,1, 8,21, 0,18,30.00,40.00,SummerDesignDay
8,15067856.999682259
2444,0.0
3199,1067568.2626090539
2,1, 8,21, 0,18,40.00,50.00,SummerDesignDay
8,14978283.739078386
2444,0.0
3199,1067568.2626090539
2,1, 8,21, 0,18,50.00,60.00,SummerDesignDay
8,14872269.568276258
2444,0.0
3199,1067568.2626090539
2,1, 8,21, 0,19, 0.00,10.00,SummerDesignDay
8,14757433.457251228
2444,0.0
3199,1067568.2626090539
2,1, 8,21, 0,19,10.00,20.00,SummerDesignDay
8,14646178.805394845
2444,0.0
3199,1067568.2626090539
2,1, 8,21, 0,19,20.00,30.00,SummerDesignDay
8,14553632.896923553
2444,0.0
3199,1067568.2626090539
2,1, 8,21, 0,19,30.00,40.00,SummerDesignDay
8,14464632.616601316
2444,0.0
3199,1067568.2626090539
2,1, 8,21, 0,19,40.00,50.00,SummerDesignDay
8,14367131.4740412
2444,0.0
3199,604219.6291789744
2,1, 8,21, 0,19,50.00,60.00,SummerDesignDay
8,14275343.976794643
2444,0.0
3199,0.0
2,1, 8,21, 0,20, 0.00,10.00,SummerDesignDay
8,14266120.526179537
2444,0.0
3199,524396.0080916557
2,1, 8,21, 0,20,10.00,20.00,SummerDesignDay
8,14185521.889315888
2444,0.0
3199,1067568.2626090539
2,1, 8,21, 0,20,20.00,30.00,SummerDesignDay
8,14099042.892257866
2444,0.0
3199,1067568.2626090539
2,1, 8,21, 0,20,30.00,40.00,SummerDesignDay
8,15256517.47551256
2444,0.0
3199,1067568.2626090539
2,1, 8,21, 0,20,40.00,50.00,SummerDesignDay
8,13994043.668735094
2444,0.0
3199,1067568.2626090539
2,1, 8,21, 0,20,50.00,60.00,SummerDesignDay
8,13861471.084279602
2444,0.0
3199,1067568.2626090539
2,1, 8,21, 0,21, 0.00,10.00,SummerDesignDay
8,13817508.128390918
2444,0.0
3199,208752.41846292934
2,1, 8,21, 0,21,10.00,20.00,SummerDesignDay
8,13795289.513416408
2444,0.0
3199,0.0
2,1, 8,21, 0,21,20.00,30.00,SummerDesignDay
8,13694163.937055947
2444,0.0
3199,859301.4950154201
2,1, 8,21, 0,21,30.00,40.00,SummerDesignDay
8,14029687.145905914
2444,0.0
3199,1067568.2626090539
2,1, 8,21, 0,21,40.00,50.00,SummerDesignDay
8,13891474.962993821
2444,0.0
3199,1067568.2626090539
2,1, 8,21, 0,21,50.00,60.00,SummerDesignDay
8,13773811.806532215
2444,0.0
3199,1067568.2626090539
2,1, 8,21, 0,22, 0.00,10.00,SummerDesignDay
8,13671071.815689703
2444,0.0
3199,1067568.2626090539
2,1, 8,21, 0,22,10.00,20.00,SummerDesignDay
8,13580037.613003237
2444,0.0
3199,766830.3246196097
2,1, 8,21, 0,22,20.00,30.00,SummerDesignDay
8,13498831.591752825
2444,0.0
3199,0.0
2,1, 8,21, 0,22,30.00,40.00,SummerDesignDay
8,13425545.065104077
2444,0.0
3199,54796.67638965627
2,1, 8,21, 0,22,40.00,50.00,SummerDesignDay
8,13359055.95730661
2444,0.0
3199,1067568.2626090539
2,1, 8,21, 0,22,50.00,60.00,SummerDesignDay
8,13297786.180325843
2444,0.0
3199,1067568.2626090539
2,1, 8,21, 0,23, 0.00,10.00,SummerDesignDay
8,11360066.23685512
2444,0.0
3199,1067568.2626090539
2,1, 8,21, 0,23,10.00,20.00,SummerDesignDay
8,11360066.23685512
2444,0.0
3199,1067568.2626090539
2,1, 8,21, 0,23,20.00,30.00,SummerDesignDay
8,11360066.23685512
2444,0.0
3199,390635.84318399505
2,1, 8,21, 0,23,30.00,40.00,SummerDesignDay
8,11360066.23685512
2444,0.0
3199,0.0
2,1, 8,21, 0,23,40.00,50.00,SummerDesignDay
8,11360066.23685512
2444,0.0
3199,336205.249397632
2,1, 8,21, 0,23,50.00,60.00,SummerDesignDay
8,11360066.23685512
2444,0.0
3199,1067568.2626090539
2,1, 8,21, 0,24, 0.00,10.00,SummerDesignDay
8,11360066.23685512
2444,0.0
3199,1067568.2626090539
2,1, 8,21, 0,24,10.00,20.00,SummerDesignDay
8,11360066.23685512
2444,0.0
3199,1067568.2626090539
2,1, 8,21, 0,24,20.00,30.00,SummerDesignDay
8,11360066.23685512
2444,0.0
3199,1005731.8009905984
2,1, 8,21, 0,24,30.00,40.00,SummerDesignDay
8,11360066.23685512
2444,0.0
3199,0.0
2,1, 8,21, 0,24,40.00,50.00,SummerDesignDay
8,11360066.23685512
2444,0.0
3199,0.0
2,1, 8,21, 0,24,50.00,60.00,SummerDesignDay
8,11360066.23685512
2444,0.0
3199,788655.4050308162
1,KODIAK ANN HTG 99.6% CONDNS DB HVAC Sizing Pass 1,  57.75,-152.50,  -9.00,   5.00
2,1, 1,21, 0, 1, 0.00,10.00,WinterDesignDay
8,3510881.2036012895
2444,17204236.95459556
3199,0.0
2,1, 1,21, 0, 1,10.00,20.00,WinterDesignDay
8,3511756.791391933
2444,17750050.10489262
3199,0.0
2,1, 1,21, 0, 1,20.00,30.00,WinterDesignDay
8,3512512.025090248
2444,18193992.771407496
3199,0.0
2,1, 1,21, 0, 1,30.00,40.00,WinterDesignDay
8,3513195.4954157257
2444,18575980.716668513
3199,0.0
2,1, 1,21, 0, 1,40.00,50.00,WinterDesignDay
8,3513796.8266953914
2444,18896149.576513976
3199,0.0
2,1, 1,21, 0, 1,50.00,60.00,WinterDesignDay
8,3514371.257091667
2444,19196860.159759536
3199,0.0
2,1, 1,21, 0, 2, 0.00,10.00,WinterDesignDay
8,3514901.228885516
2444,19469187.79102412
3199,0.0
2,1, 1,21, 0, 2,10.00,20.00,WinterDesignDay
8,3515385.7122687246
2444,19714332.63375386
3199,0.0
2,1, 1,21, 0, 2,20.00,30.00,WinterDesignDay
8,3515834.1220651567
2444,19939493.960548785
3199,0.0
2,1, 1,21, 0, 2,30.00,40.00,WinterDesignDay
8,3516241.843373501
2444,20142085.623486802
3199,682591.4963424796
2,1, 1,21, 0, 2,40.00,50.00,WinterDesignDay
8,3516616.175072266
2444,20327197.082651693
3199,1067568.2626090539
2,1, 1,21, 0, 2,50.00,60.00,WinterDesignDay
8,3517056.2225430193
2444,20567593.36714013
3199,152692.35844283472
2,1, 1,21, 0, 3, 0.00,10.00,WinterDesignDay
8,3517351.0984683265
2444,20718604.73254249
3199,0.0
2,1, 1,21, 0, 3,10.00,20.00,WinterDesignDay
8,3517677.4786032503
2444,20891152.562793966
3199,0.0
2,1, 1,21, 0, 3,20.00,30.00,WinterDesignDay
8,3517966.8541649985
2444,21043151.500969797
3199,0.0
2,1, 1,21, 0, 3,30.00,40.00,WinterDesignDay
8,3518234.8556690793
2444,21183873.145576052
3199,0.0
2,1, 1,21, 0, 3,40.00,50.00,WinterDesignDay
8,3518482.1541579766
2444,21313361.82004216
3199,0.0
2,1, 1,21, 0, 3,50.00,60.00,WinterDesignDay
8,3518715.071909488
2444,21435556.83994997
3199,0.0
2,1, 1,21, 0, 4, 0.00,10.00,WinterDesignDay
8,3518936.733342911
2444,21552181.77618154