Program Version,EnergyPlus, Version 23.1.0-87ed9199d4, YMD=2023.06.11 19:25
1,5,Environment Title[],Latitude[deg],Longitude[deg],Time Zone[],Elevation[m]
2,8,Day of Simulation[],Month[],Day of Month[],DST Indicator[1=yes 0=no],Hour[],StartMinute[],EndMinute[],DayType
3,5,Cumulative Day of Simulation[],Month[],Day of Month[],DST Indicator[1=yes 0=no],DayType  ! When Daily Report Variables Requested
4,2,Cumulative Days of Simulation[],Month[]  ! When Monthly Report Variables Requested
5,1,Cumulative Days of Simulation[] ! When Run Period Report Variables Requested
6,1,Calendar Year of Simulation[] ! When Annual Report Variables Requested
8,1,Electricity:Facility [J] !TimeStep
1603,1,NaturalGas:Facility [J] !TimeStep
End of Data Dictionary
1,RUN PERIOD 1,  57.75,-152.50,  -9.00,   5.00
2,1, 1, 1, 0, 1, 0.00,60.00,Sunday
8,18349952.259129845
1603,98298213.81438869
2,1, 1, 1, 0, 2, 0.00,60.00,Sunday
8,18349952.259129845
1603,101645481.74195604
2,1, 1, 1, 0, 3, 0.00,60.00,Sunday
8,18349952.259129845
1603,99348875.90025815
2,1, 1, 1, 0, 4, 0.00,60.00,Sunday
8,18349952.259129845
1603,88208478.94943872
2,1, 1, 1, 0, 5, 0.00,60.00,Sunday
8,19604493.74148091
1603,85121244.46982478
2,1, 1, 1, 0, 6, 0.00,60.00,Sunday
8,18349952.259129845
1603,78631214.7458511
2,1, 1, 1, 0, 7, 0.00,60.00,Sunday
8,19462676.259129845
1603,82381984.44962282
2,1, 1, 1, 0, 8, 0.00,60.00,Sunday
8,19462676.259129845
1603,83620598.80518833
2,1, 1, 1, 0, 9, 0.00,60.00,Sunday
8,19462676.259129845
1603,76353771.67927103
2,1, 1, 1, 0,10, 0.00,60.00,Sunday
8,20717241.272574555
1603,80037122.3142329
2,1, 1, 1, 0,11, 0.00,60.00,Sunday
8,16179476.259129845
1603,75950090.32962786
2,1, 1, 1, 0,12, 0.00,60.00,Sunday
8,16179476.259129845
1603,74433375.8846518
2,1, 1, 1, 0,13, 0.00,60.00,Sunday
8,16179476.259129845
1603,75180686.5545217
2,1, 1, 1, 0,14, 0.00,60.00,Sunday
8,16179476.259129845
1603,74032137.17467093
2,1, 1, 1, 0,15, 0.00,60.00,Sunday
8,17434064.765081413
1603,75124883.63221979
2,1, 1, 1, 0,16, 0.00,60.00,Sunday
8,16179476.259129845
1603,77699194.56326607
2,1, 1, 1, 0,17, 0.00,60.00,Sunday
8,19462676.259129845
1603,81796761.28916116
2,1, 1, 1, 0,18, 0.00,60.00,Sunday
8,19462676.259129845
1603,85816750.24158607
2,1, 1, 1, 0,19, 0.00,60.00,Sunday
8,19462676.259129845
1603,91674255.48790246
2,1, 1, 1, 0,20, 0.00,60.00,Sunday
8,20717288.219097238
1603,96652618.73932005
2,1, 1, 1, 0,21, 0.00,60.00,Sunday
8,19462676.259129845
1603,88008811.0286189
2,1, 1, 1, 0,22, 0.00,60.00,Sunday
8,19462676.259129845
1603,85320703.89551648
2,1, 1, 1, 0,23, 0.00,60.00,Sunday
8,19462676.259129845
1603,80504469.87126878
2,1, 1, 1, 0,24, 0.00,60.00,Sunday
8,19462676.259129845
1603,83008328.31301084
2,2, 1, 2, 0, 1, 0.00,60.00,Monday
8,21194399.778957777
1603,90291159.0816977
2,2, 1, 2, 0, 2, 0.00,60.00,Monday
8,20084292.78011929
1603,85814244.30231844
2,2, 1, 2, 0, 3, 0.00,60.00,Monday
8,20084292.78011929
1603,89902454.4841732
2,2, 1, 2, 0, 4, 0.00,60.00,Monday
8,20084292.78011929
1603,97643009.44256122
2,2, 1, 2, 0, 5, 0.00,60.00,Monday
8,20358342.78011929
1603,99107939.52074999
2,2, 1, 2, 0, 6, 0.00,60.00,Monday
8,22727556.81503343
1603,91245205.64424811
2,2, 1, 2, 0, 7, 0.00,60.00,Monday
8,22711470.064934753
1603,102915105.44896172
2,2, 1, 2, 0, 8, 0.00,60.00,Monday
8,29587938.18136392
1603,101422375.51541376
2,2, 1, 2, 0, 9, 0.00,60.00,Monday
8,41365833.03755451
1603,84049361.78907393
2,2, 1, 2, 0,10, 0.00,60.00,Monday
8,43040768.046588235
1603,79708864.77000763
2,2, 1, 2, 0,11, 0.00,60.00,Monday
8,41012250.138609566
1603,73663996.24538305
2,2, 1, 2, 0,12, 0.00,60.00,Monday
8,39220406.23883713
1603,71422968.4201278
2,2, 1, 2, 0,13, 0.00,60.00,Monday
8,37463972.391269974
1603,67639417.9634164
2,2, 1, 2, 0,14, 0.00,60.00,Monday
8,39518829.46536552
1603,59848903.53361347
2,2, 1, 2, 0,15, 0.00,60.00,Monday
8,39757568.046588235
1603,63889150.33619239
2,2, 1, 2, 0,16, 0.00,60.00,Monday
8,41012273.43961235
1603,72476143.0747031
2,2, 1, 2, 0,17, 0.00,60.00,Monday
8,41199594.62918253
1603,80933487.09074567
2,2, 1, 2, 0,18, 0.00,60.00,Monday
8,31738287.043613296
1603,76705371.35193604
2,2, 1, 2, 0,19, 0.00,60.00,Monday
8,25525577.902314987
1603,87996454.91302818
2,2, 1, 2, 0,20, 0.00,60.00,Monday
8,25411985.86937688
1603,93774189.59769638
2,2, 1, 2, 0,21, 0.00,60.00,Monday
8,22820158.081193276
1603,100823787.95297442
2,2, 1, 2, 0,22, 0.00,60.00,Monday
8,21861753.161693286
1603,100063404.42694889
2,2, 1, 2, 0,23, 0.00,60.00,Monday
8,19991023.39836316
1603,104938362.38583982
2,2, 1, 2, 0,24, 0.00,60.00,Monday
8,19784414.191043153
1603,99557867.1338266
2,3, 1, 3, 0, 1, 0.00,60.00,Tuesday
8,21194306.570204586
1603,105483344.65662973
2,3, 1, 3, 0, 2, 0.00,60.00,Tuesday
8,20084292.78011929
1603,105882679.57805091
2,3, 1, 3, 0, 3, 0.00,60.00,Tuesday
8,20084292.78011929
1603,108886940.57512733
2,3, 1, 3, 0, 4, 0.00,60.00,Tuesday
8,20084292.78011929
1603,104385652.17339168
2,3, 1, 3, 0, 5, 0.00,60.00,Tuesday
8,20358342.78011929
1603,104507785.03784117
2,3, 1, 3, 0, 6, 0.00,60.00,Tuesday
8,22727463.758931283
1603,104140330.32338801
2,3, 1, 3, 0, 7, 0.00,60.00,Tuesday
8,22711470.064934753
1603,109100172.17172463
2,3, 1, 3, 0, 8, 0.00,60.00,Tuesday
8,29587938.18136392
1603,109785992.38611859
2,3, 1, 3, 0, 9, 0.00,60.00,Tuesday
8,41365833.03755451
1603,106422856.30855836
2,3, 1, 3, 0,10, 0.00,60.00,Tuesday
8,43040768.046588235
1603,99993389.58291242
2,3, 1, 3, 0,11, 0.00,60.00,Tuesday
8,41012157.23478018
1603,92985882.72190896
2,3, 1, 3, 0,12, 0.00,60.00,Tuesday
8,39220406.23883713
1603,81787403.13357982
2,3, 1, 3, 0,13, 0.00,60.00,Tuesday
8,37463972.391269974
1603,74625800.58339338
2,3, 1, 3, 0,14, 0.00,60.00,Tuesday
8,39518829.46536552
1603,71498685.04768667
2,3, 1, 3, 0,15, 0.00,60.00,Tuesday
8,39757568.046588235
1603,72794513.44530405
2,3, 1, 3, 0,16, 0.00,60.00,Tuesday
8,41012180.687678665
1603,68093581.14819543
2,3, 1, 3, 0,17, 0.00,60.00,Tuesday
8,41199594.62918253
1603,77864663.0887373
2,3, 1, 3, 0,18, 0.00,60.00,Tuesday
8,31738287.043613296
1603,80558604.29103324
2,3, 1, 3, 0,19, 0.00,60.00,Tuesday
8,25525577.902314987
1603,82653033.79198697
2,3, 1, 3, 0,20, 0.00,60.00,Tuesday
8,24157467.271193277
1603,83386693.48074417
2,3, 1, 3, 0,21, 0.00,60.00,Tuesday
8,24074794.136789367
1603,81819220.61513783
2,3, 1, 3, 0,22, 0.00,60.00,Tuesday
8,21861753.161693286
1603,84301259.26211344
2,3, 1, 3, 0,23, 0.00,60.00,Tuesday
8,19991023.39836316
1603,94732680.91420148
2,3, 1, 3, 0,24, 0.00,60.00,Tuesday
8,19784414.191043153
1603,93485110.69943298
2,4, 1, 4, 0, 1, 0.00,60.00,Wednesday
8,19939764.40337017
1603,98079638.60697716
2,4, 1, 4, 0, 2, 0.00,60.00,Wednesday
8,21338952.2119233
1603,101015114.0795638
2,4, 1, 4, 0, 3, 0.00,60.00,Wednesday
8,20084292.78011929
1603,107443588.74406277
2,4, 1, 4, 0, 4, 0.00,60.00,Wednesday
8,20084292.78011929
1603,105982174.0194044
2,4, 1, 4, 0, 5, 0.00,60.00,Wednesday
8,20358342.78011929
1603,102691734.04572496
2,4, 1, 4, 0, 6, 0.00,60.00,Wednesday
8,21472898.062126108
1603,102445161.93653551
2,4, 1, 4, 0, 7, 0.00,60.00,Wednesday
8,23966152.834743727
1603,105471222.14112602
2,4, 1, 4, 0, 8, 0.00,60.00,Wednesday
8,29587938.18136392
1603,105962052.55558713
2,4, 1, 4, 0, 9, 0.00,60.00,Wednesday
8,41365833.03755451
1603,96561993.88435586
2,4, 1, 4, 0,10, 0.00,60.00,Wednesday
8,43040768.046588235
1603,91684853.28212298
2,4, 1, 4, 0,11, 0.00,60.00,Wednesday
8,39757568.046588235
1603,77685671.71915513
2,4, 1, 4, 0,12, 0.00,60.00,Wednesday
8,40475112.30854259
1603,66222215.03501244
2,4, 1, 4, 0,13, 0.00,60.00,Wednesday
8,37463972.391269974
1603,63311481.284874834
2,4, 1, 4, 0,14, 0.00,60.00,Wednesday
8,39518829.46536552
1603,58199753.06048626
2,4, 1, 4, 0,15, 0.00,60.00,Wednesday
8,39757568.046588235
1603,68679933.946782
2,4, 1, 4, 0,16, 0.00,60.00,Wednesday
8,41012087.325257994
1603,73896690.34438172
2,4, 1, 4, 0,17, 0.00,60.00,Wednesday
8,41199594.62918253
1603,74632579.55607504
2,4, 1, 4, 0,18, 0.00,60.00,Wednesday
8,31738287.043613296
1603,82603477.17664587
2,4, 1, 4, 0,19, 0.00,60.00,Wednesday
8,25525577.902314987
1603,81959555.19506404
2,4, 1, 4, 0,20, 0.00,60.00,Wednesday
8,24157467.271193277
1603,72531777.5965676
2,4, 1, 4, 0,21, 0.00,60.00,Wednesday
8,24074700.92739659
1603,90505625.67226845
2,4, 1, 4, 0,22, 0.00,60.00,Wednesday
8,21861753.161693286
1603,96843977.64920183
2,4, 1, 4, 0,23, 0.00,60.00,Wednesday
8,19991023.39836316
1603,93054039.79288332
2,4, 1, 4, 0,24, 0.00,60.00,Wednesday
8,19784414.191043153
1603,102466541.50482765
2,5, 1, 5, 0, 1, 0.00,60.00,Thursday
8,19939764.40337017
1603,105402083.76464842
2,5, 1, 5, 0, 2, 0.00,60.00,Thursday
8,21338859.15517889
1603,101965066.39829801
2,5, 1, 5, 0, 3, 0.00,60.00,Thursday
8,20084292.78011929
1603,108787157.91492923
2,5, 1, 5, 0, 4, 0.00,60.00,Thursday
8,20084292.78011929
1603,115393127.26901127
2,5, 1, 5, 0, 5, 0.00,60.00,Thursday
8,20358342.78011929
1603,96040480.635961
2,5, 1, 5, 0, 6, 0.00,60.00,Thursday
8,21472898.062126108
1603,117128558.77011316
2,5, 1, 5, 0, 7, 0.00,60.00,Thursday
8,23966059.930269558
1603,120374267.32476503
2,5, 1, 5, 0, 8, 0.00,60.00,Thursday
8,29587938.18136392
1603,130983317.59411882
2,5, 1, 5, 0, 9, 0.00,60.00,Thursday
8,41365833.03755451
1603,144714786.47017044
2,5, 1, 5, 0,10, 0.00,60.00,Thursday
8,43040768.046588235
1603,135494292.43320656
2,5, 1, 5, 0,11, 0.00,60.00,Thursday
8,39757568.046588235
1603,130940101.3131038
2,5, 1, 5, 0,12, 0.00,60.00,Thursday
8,40475019.5559615
1603,118953757.38962008
2,5, 1, 5, 0,13, 0.00,60.00,Thursday
8,37463972.391269974
1603,120502694.00850865
2,5, 1, 5, 0,14, 0.00,60.00,Thursday
8,39518829.46536552
1603,136830349.86095154
2,5, 1, 5, 0,15, 0.00,60.00,Thursday
8,39757568.046588235
1603,137297625.058644
2,5, 1, 5, 0,16, 0.00,60.00,Thursday
8,39757568.046588235
1603,138322502.46870908
2,5, 1, 5, 0,17, 0.00,60.00,Thursday
8,42454231.35970635
1603,156906529.06605205
2,5, 1, 5, 0,18, 0.00,60.00,Thursday
8,31738287.043613296
1603,145869113.4999341
2,5, 1, 5, 0,19, 0.00,60.00,Thursday
8,25525577.902314987
1603,156103149.23392075
2,5, 1, 5, 0,20, 0.00,60.00,Thursday
8,24157467.271193277
1603,142457667.23626336
2,5, 1, 5, 0,21, 0.00,60.00,Thursday
8,22820158.081193276
1603,135976044.92552745
2,5, 1, 5, 0,22, 0.00,60.00,Thursday
8,23116413.267321557
1603,135996612.45505324
2,5, 1, 5, 0,23, 0.00,60.00,Thursday
8,19991023.39836316
1603,138430080.64167953
2,5, 1, 5, 0,24, 0.00,60.00,Thursday
8,19784414.191043153
1603,141612633.00864464
2,6, 1, 6, 0, 1, 0.00,60.00,Friday
8,19939764.40337017
1603,148290845.75347018
2,6, 1, 6, 0, 2, 0.00,60.00,Friday
8,20084292.78011929
1603,146080647.6333623
2,6, 1, 6, 0, 3, 0.00,60.00,Friday
8,21338976.222651795
1603,142527651.0446566
2,6, 1, 6, 0, 4, 0.00,60.00,Friday
8,20084292.78011929
1603,134853210.1996278
2,6, 1, 6, 0, 5, 0.00,60.00,Friday
8,20358342.78011929
1603,128063218.20958436
2,6, 1, 6, 0, 6, 0.00,60.00,Friday
8,21472898.062126108
1603,130732055.07282542
2,6, 1, 6, 0, 7, 0.00,60.00,Friday
8,22711470.064934753
1603,149372976.55320105
2,6, 1, 6, 0, 8, 0.00,60.00,Friday
8,30842644.9226949
1603,140071139.533809
2,6, 1, 6, 0, 9, 0.00,60.00,Friday
8,41365833.03755451
1603,134391761.1466001
2,6, 1, 6, 0,10, 0.00,60.00,Friday
8,43040768.046588235
1603,123848482.32379292
2,6, 1, 6, 0,11, 0.00,60.00,Friday
8,39757568.046588235
1603,138447137.92276478
2,6, 1, 6, 0,12, 0.00,60.00,Friday
8,40474926.1929088
1603,130385188.50193344
2,6, 1, 6, 0,13, 0.00,60.00,Friday
8,37463972.391269974
1603,131442932.31738245
2,6, 1, 6, 0,14, 0.00,60.00,Friday
8,39518829.46536552
1603,131029847.96735308
2,6, 1, 6, 0,15, 0.00,60.00,Friday
8,39757568.046588235
1603,132269823.32409178
2,6, 1, 6, 0,16, 0.00,60.00,Friday
8,39757568.046588235
1603,149808561.32203925
2,6, 1, 6, 0,17, 0.00,60.00,Friday
8,39170938.14967889
1603,152817211.27816826
2,6, 1, 6, 0,18, 0.00,60.00,Friday
8,31738287.043613296
1603,142464850.1441994
2,6, 1, 6, 0,19, 0.00,60.00,Friday
8,25525577.902314987
1603,157278797.74708837
2,6, 1, 6, 0,20, 0.00,60.00,Friday
8,24157467.271193277
1603,157973918.06052637
2,6, 1, 6, 0,21, 0.00,60.00,Friday
8,22820158.081193276
1603,149602423.10276598
2,6, 1, 6, 0,22, 0.00,60.00,Friday
8,23116320.20993982
1603,164262120.23550645
2,6, 1, 6, 0,23, 0.00,60.00,Friday
8,19991023.39836316
1603,163930395.49663177
2,6, 1, 6, 0,24, 0.00,60.00,Friday
8,19784414.191043153
1603,147376029.81390914
2,7, 1, 7, 0, 1, 0.00,60.00,Saturday
8,18349952.259129845
1603,156697903.1903141
2,7, 1, 7, 0, 2, 0.00,60.00,Saturday
8,18349952.259129845
1603,154229995.18988532
2,7, 1, 7, 0, 3, 0.00,60.00,Saturday
8,19604542.79654806
1603,152457684.9581325
2,7, 1, 7, 0, 4, 0.00,60.00,Saturday
8,18349952.259129845
1603,141353486.7857088
2,7, 1, 7, 0, 5, 0.00,60.00,Saturday
8,18349952.259129845
1603,150977620.7245088
2,7, 1, 7, 0, 6, 0.00,60.00,Saturday
8,18349952.259129845
1603,153730908.64464793
2,7, 1, 7, 0, 7, 0.00,60.00,Saturday
8,19462676.259129845
1603,155759869.51996914
2,7, 1, 7, 0, 8, 0.00,60.00,Saturday
8,20717290.24723697
1603,146323440.76418257
2,7, 1, 7, 0, 9, 0.00,60.00,Saturday
8,19462676.259129845
1603,140741636.40157753
2,7, 1, 7, 0,10, 0.00,60.00,Saturday
8,19462676.259129845
1603,130055718.6040423
2,7, 1, 7, 0,11, 0.00,60.00,Saturday
8,16179476.259129845
1603,121946517.82558094
2,7, 1, 7, 0,12, 0.00,60.00,Saturday
8,16179476.259129845
1603,123412399.0095509
2,7, 1, 7, 0,13, 0.00,60.00,Saturday
8,17434113.659538522
1603,124109416.71650477
2,7, 1, 7, 0,14, 0.00,60.00,Saturday
8,16179476.259129845
1603,123861397.0766003
2,7, 1, 7, 0,15, 0.00,60.00,Saturday
8,16179476.259129845
1603,127300816.36729077
2,7, 1, 7, 0,16, 0.00,60.00,Saturday
8,16179476.259129845
1603,126043697.76553014
2,7, 1, 7, 0,17, 0.00,60.00,Saturday
8,16179476.259129845
1603,131648952.00582847
2,7, 1, 7, 0,18, 0.00,60.00,Saturday
8,20717337.033547785
1603,133402403.37661092
2,7, 1, 7, 0,19, 0.00,60.00,Saturday
8,19462676.259129845
1603,136282417.95276037
2,7, 1, 7, 0,20, 0.00,60.00,Saturday
8,19462676.259129845
1603,140840499.04059395
2,7, 1, 7, 0,21, 0.00,60.00,Saturday
8,19462676.259129845
1603,143499465.1628654
2,7, 1, 7, 0,22, 0.00,60.00,Saturday
8,19462676.259129845
1603,138627259.23739618
2,7, 1, 7, 0,23, 0.00,60.00,Saturday
8,20717360.369359538
1603,138594101.55602816
2,7, 1, 7, 0,24, 0.00,60.00,Saturday
8,19462676.259129845
1603,141173274.89298204
2,8, 1, 8, 0, 1, 0.00,60.00,Sunday
8,18349952.259129845
1603,140643584.98817754
2,8, 1, 8, 0, 2, 0.00,60.00,Sunday
8,18349952.259129845
1603,140244147.85559106
2,8, 1, 8, 0, 3, 0.00,60.00,Sunday
8,18349952.259129845
1603,135508936.84671235
2,8, 1, 8, 0, 4, 0.00,60.00,Sunday
8,19604659.66706823
1603,133548191.73250264
2,8, 1, 8, 0, 5, 0.00,60.00,Sunday
8,18349952.259129845
1603,131449104.27347746
2,8, 1, 8, 0, 6, 0.00,60.00,Sunday
8,18349952.259129845
1603,123126755.28220448
2,8, 1, 8, 0, 7, 0.00,60.00,Sunday
8,19462676.259129845
1603,134618895.3566796
2,8, 1, 8, 0, 8, 0.00,60.00,Sunday
8,20717196.88355714
1603,130584829.65225035
2,8, 1, 8, 0, 9, 0.00,60.00,Sunday
8,19462676.259129845
1603,119580417.04724918
2,8, 1, 8, 0,10, 0.00,60.00,Sunday
8,19462676.259129845
1603,122831319.97528756
2,8, 1, 8, 0,11, 0.00,60.00,Sunday
8,16179476.259129845
1603,119850561.35548404
2,8, 1, 8, 0,12, 0.00,60.00,Sunday
8,16179476.259129843
1603,105574740.16246693
2,8, 1, 8, 0,13, 0.00,60.00,Sunday
8,17434020.44888127
1603,101427188.0318325
2,8, 1, 8, 0,14, 0.00,60.00,Sunday
8,16179476.259129845
1603,111043908.8823808
2,8, 1, 8, 0,15, 0.00,60.00,Sunday
8,16179476.259129845
1603,120172428.52554865
2,8, 1, 8, 0,16, 0.00,60.00,Sunday
8,16179476.259129845
1603,121906448.42221294
2,8, 1, 8, 0,17, 0.00,60.00,Sunday
8,16179476.259129845
1603,131887383.69880506
2,8, 1, 8, 0,18, 0.00,60.00,Sunday
8,20717243.975533605
1603,144157105.97463363
2,8, 1, 8, 0,19, 0.00,60.00,Sunday
8,19462676.259129845
1603,147877899.27277702
2,8, 1, 8, 0,20, 0.00,60.00,Sunday
8,19462676.259129845
1603,146403746.2202559
2,8, 1, 8, 0,21, 0.00,60.00,Sunday
8,19462676.259129845
1603,141959089.52690348
2,8, 1, 8, 0,22, 0.00,60.00,Sunday
8,19462676.259129845
1603,141808739.6623618
2,8, 1, 8, 0,23, 0.00,60.00,Sunday
8,20717267.463610176
1603,126662956.5521082
2,8, 1, 8, 0,24, 0.00,60.00,Sunday
8,19462676.259129845
1603,135273033.41573513
2,9, 1, 9, 0, 1, 0.00,60.00,Monday
8,19939764.40337017
1603,131399628.01583539
2,9, 1, 9, 0, 2, 0.00,60.00,Monday
8,20084292.78011929
1603,132914913.61383575
2,9, 1, 9, 0, 3, 0.00,60.00,Monday
8,20084292.78011929
1603,132809808.64123726
2,9, 1, 9, 0, 4, 0.00,60.00,Monday
8,21338907.434196144
1603,131203972.99805315
2,9, 1, 9, 0, 5, 0.00,60.00,Monday
8,20358342.78011929
1603,119557326.32498229
2,9, 1, 9, 0, 6, 0.00,60.00,Monday
8,21472898.062126108
1603,126954747.74445696
2,9, 1, 9, 0, 7, 0.00,60.00,Monday
8,22711470.064934753
1603,131201725.25826403
2,9, 1, 9, 0, 8, 0.00,60.00,Monday
8,29587938.18136392
1603,122926459.49112347
2,9, 1, 9, 0, 9, 0.00,60.00,Monday
8,42620471.10284324
1603,112267670.56101146
2,9, 1, 9, 0,10, 0.00,60.00,Monday
8,43040768.046588235
1603,111049672.71037218
2,9, 1, 9, 0,11, 0.00,60.00,Monday
8,39757568.046588235
1603,105730062.1747621
2,9, 1, 9, 0,12, 0.00,60.00,Monday
8,39220406.23883713
1603,94601598.19306281
2,9, 1, 9, 0,13, 0.00,60.00,Monday
8,37463972.391269974
1603,97162628.82312223
2,9, 1, 9, 0,14, 0.00,60.00,Monday
8,40773490.90357654
1603,91224541.47953467
2,9, 1, 9, 0,15, 0.00,60.00,Monday
8,39757568.046588235
1603,100222729.47619487
2,9, 1, 9, 0,16, 0.00,60.00,Monday
8,39757568.04658824
1603,93806557.66449714
2,9, 1, 9, 0,17, 0.00,60.00,Monday
8,37916394.62918253
1603,94418344.37918735
2,9, 1, 9, 0,18, 0.00,60.00,Monday
8,31738287.043613296
1603,101819696.02326292
2,9, 1, 9, 0,19, 0.00,60.00,Monday
8,26780262.67525346
1603,98107318.74214913
2,9, 1, 9, 0,20, 0.00,60.00,Monday
8,24157467.271193277
1603,93549709.50080806
2,9, 1, 9, 0,21, 0.00,60.00,Monday
8,22820158.081193276
1603,90741772.89784846
2,9, 1, 9, 0,22, 0.00,60.00,Monday
8,21861753.16169329
1603,87093620.52218787
2,9, 1, 9, 0,23, 0.00,60.00,Monday
8,19991023.39836316
1603,96457105.06025389
2,9, 1, 9, 0,24, 0.00,60.00,Monday
8,21039122.260608703
1603,94355604.46168007
2,10, 1,10, 0, 1, 0.00,60.00,Tuesday
8,19939764.40337017
1603,89415289.7181535
2,10, 1,10, 0, 2, 0.00,60.00,Tuesday
8,20084292.78011929
1603,92862304.97400504
2,10, 1,10, 0, 3, 0.00,60.00,Tuesday
8,20084292.78011929
1603,90068669.8848733
2,10, 1,10, 0, 4, 0.00,60.00,Tuesday
8,21338814.069893975
1603,89910230.6475236
2,10, 1,10, 0, 5, 0.00,60.00,Tuesday
8,20358342.78011929
1603,84360104.46244176
2,10, 1,10, 0, 6, 0.00,60.00,Tuesday
8,21472898.062126108
1603,97111284.2835835
2,10, 1,10, 0, 7, 0.00,60.00,Tuesday
8,22711470.064934753
1603,93306808.7746551
2,10, 1,10, 0, 8, 0.00,60.00,Tuesday
8,29587938.18136392
1603,107364762.99643625
2,10, 1,10, 0, 9, 0.00,60.00,Tuesday
8,42620377.89156101
1603,98361488.31981184
2,10, 1,10, 0,10, 0.00,60.00,Tuesday
8,43040768.046588235
1603,92337256.9606452
2,10, 1,10, 0,11, 0.00,60.00,Tuesday
8,39757568.046588235
1603,84639754.81668997
2,10, 1,10, 0,12, 0.00,60.00,Tuesday
8,39220406.23883713
1603,73314148.57065293
2,10, 1,10, 0,13, 0.00,60.00,Tuesday
8,37463972.391269974
1603,67769094.21084578
2,10, 1,10, 0,14, 0.00,60.00,Tuesday
8,40773397.84493463
1603,64353317.92528191
2,10, 1,10, 0,15, 0.00,60.00,Tuesday
8,39757568.046588235
1603,61132762.9425259
2,10, 1,10, 0,16, 0.00,60.00,Tuesday
8,39757568.04658824
1603,67645607.36680695
2,10, 1,10, 0,17, 0.00,60.00,Tuesday
8,37916394.62918253
1603,72872506.1634146
2,10, 1,10, 0,18, 0.00,60.00,Tuesday
8,31738287.043613296
1603,72958871.69742723
2,10, 1,10, 0,19, 0.00,60.00,Tuesday
8,26780169.768873785
1603,78437016.99924807
2,10, 1,10, 0,20, 0.00,60.00,Tuesday
8,24157467.271193277
1603,79042124.32944675
2,10, 1,10, 0,21, 0.00,60.00,Tuesday
8,22820158.081193276
1603,78183631.96593703
2,10, 1,10, 0,22, 0.00,60.00,Tuesday
8,21861753.161693286
1603,77599449.78884523
2,10, 1,10, 0,23, 0.00,60.00,Tuesday
8,19991023.39836316
1603,81150089.16160387
2,10, 1,10, 0,24, 0.00,60.00,Tuesday
8,21039029.506114274
1603,76862118.28654787
2,11, 1,11, 0, 1, 0.00,60.00,Wednesday
8,19939764.40337017
1603,76971639.54534213
2,11, 1,11, 0, 2, 0.00,60.00,Wednesday
8,20084292.78011929
1603,70961513.84336445
2,11, 1,11, 0, 3, 0.00,60.00,Wednesday
8,20084292.78011929
1603,69902423.96439706
2,11, 1,11, 0, 4, 0.00,60.00,Wednesday
8,20084292.78011929
1603,70000499.66121028
2,11, 1,11, 0, 5, 0.00,60.00,Wednesday
8,21612981.50532076
1603,67069932.37274126
2,11, 1,11, 0, 6, 0.00,60.00,Wednesday
8,21472898.062126108
1603,69303708.90626875
2,11, 1,11, 0, 7, 0.00,60.00,Wednesday
8,22711470.064934753
1603,73610677.18657869
2,11, 1,11, 0, 8, 0.00,60.00,Wednesday
8,29587938.18136392
1603,76186927.75483951
2,11, 1,11, 0, 9, 0.00,60.00,Wednesday
8,41365833.03755451
1603,73814349.07141092
2,11, 1,11, 0,10, 0.00,60.00,Wednesday
8,44295430.14363316
1603,67735465.94046693
2,11, 1,11, 0,11, 0.00,60.00,Wednesday
8,39757568.046588235
1603,62411450.8062767
2,11, 1,11, 0,12, 0.00,60.00,Wednesday
8,39220406.23883713
1603,62815090.2638525
2,11, 1,11, 0,13, 0.00,60.00,Wednesday
8,37463972.391269974
1603,61467368.85324075
2,11, 1,11, 0,14, 0.00,60.00,Wednesday
8,39518829.46536552
1603,64859591.9453092
2,11, 1,11, 0,15, 0.00,60.00,Wednesday
8,41012253.477284454
1603,57155317.48407909
2,11, 1,11, 0,16, 0.00,60.00,Wednesday
8,39757568.046588235
1603,57739623.38957182
2,11, 1,11, 0,17, 0.00,60.00,Wednesday
8,37916394.62918253
1603,62282578.729352765
2,11, 1,11, 0,18, 0.00,60.00,Wednesday
8,31738287.043613296
1603,64275909.13352731
2,11, 1,11, 0,19, 0.00,60.00,Wednesday
8,25525577.902314987
1603,66867991.71346276
2,11, 1,11, 0,20, 0.00,60.00,Wednesday
8,25412175.99744306
1603,64898098.17458609
2,11, 1,11, 0,21, 0.00,60.00,Wednesday
8,22820158.081193276
1603,66787402.32923417
2,11, 1,11, 0,22, 0.00,60.00,Wednesday
8,21861753.161693286
1603,66524460.45311402
2,11, 1,11, 0,23, 0.00,60.00,Wednesday
8,19991023.39836316
1603,69437666.08021794
2,11, 1,11, 0,24, 0.00,60.00,Wednesday
8,21038936.141194526
1603,66916077.048776336
2,12, 1,12, 0, 1, 0.00,60.00,Thursday
8,19939764.40337017
1603,68077872.92328
2,12, 1,12, 0, 2, 0.00,60.00,Thursday
8,20084292.78011929
1603,69276954.1948542
2,12, 1,12, 0, 3, 0.00,60.00,Thursday
8,20084292.78011929
1603,68159620.91447553
2,12, 1,12, 0, 4, 0.00,60.00,Thursday
8,20084292.78011929
1603,67044629.40800941
2,12, 1,12, 0, 5, 0.00,60.00,Thursday
8,21612888.293418348
1603,70673652.91442584
2,12, 1,12, 0, 6, 0.00,60.00,Thursday
8,21472898.062126108
1603,71694658.17902026
2,12, 1,12, 0, 7, 0.00,60.00,Thursday
8,22711470.064934753
1603,72758274.5873926
2,12, 1,12, 0, 8, 0.00,60.00,Thursday
8,29587938.18136392
1603,70946414.86516382
2,12, 1,12, 0, 9, 0.00,60.00,Thursday
8,41365833.03755451
1603,67626472.7728524
2,12, 1,12, 0,10, 0.00,60.00,Thursday
8,44295337.084368594
1603,62388621.03820589
2,12, 1,12, 0,11, 0.00,60.00,Thursday
8,39757568.046588235
1603,60125694.465349756
2,12, 1,12, 0,12, 0.00,60.00,Thursday
8,39220406.23883713
1603,58835260.475296274
2,12, 1,12, 0,13, 0.00,60.00,Thursday
8,37463972.391269974
1603,59766586.856955394
2,12, 1,12, 0,14, 0.00,60.00,Thursday
8,39518829.46536552
1603,59376345.53802691
2,12, 1,12, 0,15, 0.00,60.00,Thursday
8,41012160.570279524
1603,59116858.9530544
2,12, 1,12, 0,16, 0.00,60.00,Thursday
8,39757568.046588235
1603,59476432.35977699
2,12, 1,12, 0,17, 0.00,60.00,Thursday
8,37916394.62918253
1603,60186773.80652096
2,12, 1,12, 0,18, 0.00,60.00,Thursday
8,31738287.043613296
1603,61016737.52354802
2,12, 1,12, 0,19, 0.00,60.00,Thursday
8,25525577.902314987
1603,62417651.47446163
2,12, 1,12, 0,20, 0.00,60.00,Thursday
8,25412083.242320813
1603,65750505.034987554
2,12, 1,12, 0,21, 0.00,60.00,Thursday
8,22820158.081193276
1603,67736619.01056601
2,12, 1,12, 0,22, 0.00,60.00,Thursday
8,21861753.161693286
1603,73409683.1114704
2,12, 1,12, 0,23, 0.00,60.00,Thursday
8,19991023.39836316
1603,71694171.88451251
2,12, 1,12, 0,24, 0.00,60.00,Thursday
8,19784414.191043153
1603,70499993.0958857
2,13, 1,13, 0, 1, 0.00,60.00,Friday
8,21194403.783555016
1603,69371078.45141648
2,13, 1,13, 0, 2, 0.00,60.00,Friday
8,20084292.78011929
1603,66015482.80546749
2,13, 1,13, 0, 3, 0.00,60.00,Friday
8,20084292.78011929
1603,66283387.0293691
2,13, 1,13, 0, 4, 0.00,60.00,Friday
8,20084292.78011929
1603,65620494.42511712
2,13, 1,13, 0, 5, 0.00,60.00,Friday
8,20358342.78011929
1603,57159034.91335603
2,13, 1,13, 0, 6, 0.00,60.00,Friday
8,22727560.81308329
1603,65821091.27766252
2,13, 1,13, 0, 7, 0.00,60.00,Friday
8,22711470.064934753
1603,69080499.62314457
2,13, 1,13, 0, 8, 0.00,60.00,Friday
8,29587938.18136392
1603,66456170.542732716
2,13, 1,13, 0, 9, 0.00,60.00,Friday
8,41365833.03755451
1603,66802295.9603448
2,13, 1,13, 0,10, 0.00,60.00,Friday
8,43040768.046588235
1603,57948921.308748744
2,13, 1,13, 0,11, 0.00,60.00,Friday
8,41012254.130128615
1603,44022267.1348823
2,13, 1,13, 0,12, 0.00,60.00,Friday
8,39220406.23883713
1603,41776852.319973215
2,13, 1,13, 0,13, 0.00,60.00,Friday
8,37463972.391269974
1603,39130613.12735906
2,13, 1,13, 0,14, 0.00,60.00,Friday
8,39518829.46536552
1603,40870956.114857435
2,13, 1,13, 0,15, 0.00,60.00,Friday
8,39757568.046588235
1603,29613382.573993914
2,13, 1,13, 0,16, 0.00,60.00,Friday
8,41012277.42461672
1603,39565550.35831612
2,13, 1,13, 0,17, 0.00,60.00,Friday
8,37916394.62918253
1603,60616373.12815923
2,13, 1,13, 0,18, 0.00,60.00,Friday
8,31738287.043613296
1603,67265076.48375762
2,13, 1,13, 0,19, 0.00,60.00,Friday
8,25525577.902314987
1603,75031632.79943131
2,13, 1,13, 0,20, 0.00,60.00,Friday
8,25411989.87678823
1603,71517117.27277437
2,13, 1,13, 0,21, 0.00,60.00,Friday
8,22820158.081193276
1603,79809827.97716211
2,13, 1,13, 0,22, 0.00,60.00,Friday
8,21861753.161693286
1603,82966001.0306745
2,13, 1,13, 0,23, 0.00,60.00,Friday
8,19991023.39836316
1603,83652151.84787267
2,13, 1,13, 0,24, 0.00,60.00,Friday
8,19784414.191043153
1603,83634374.45232229
2,14, 1,14, 0, 1, 0.00,60.00,Saturday
8,19604498.42679613
1603,87787700.68051524
2,14, 1,14, 0, 2, 0.00,60.00,Saturday
8,18349952.259129845
1603,81565391.8847418
2,14, 1,14, 0, 3, 0.00,60.00,Saturday
8,18349952.259129845
1603,85422942.2977485
2,14, 1,14, 0, 4, 0.00,60.00,Saturday
8,18349952.259129845
1603,82696382.74823338
2,14, 1,14, 0, 5, 0.00,60.00,Saturday
8,18349952.259129845
1603,80964481.9760706
2,14, 1,14, 0, 6, 0.00,60.00,Saturday
8,19604521.9502041
1603,77110751.25375667
2,14, 1,14, 0, 7, 0.00,60.00,Saturday
8,19462676.259129845
1603,73948137.43282312
2,14, 1,14, 0, 8, 0.00,60.00,Saturday
8,19462676.259129845
1603,70985815.88493602
2,14, 1,14, 0, 9, 0.00,60.00,Saturday
8,19462676.259129845
1603,76186649.52666034
2,14, 1,14, 0,10, 0.00,60.00,Saturday
8,19462676.259129845
1603,74414715.08715776
2,14, 1,14, 0,11, 0.00,60.00,Saturday
8,17434069.435044367
1603,62029520.755893975
2,14, 1,14, 0,12, 0.00,60.00,Saturday
8,16179476.259129845
1603,63372569.98958566
2,14, 1,14, 0,13, 0.00,60.00,Saturday
8,16179476.259129845
1603,79501058.55666147
2,14, 1,14, 0,14, 0.00,60.00,Saturday
8,16179476.259129845
1603,79685149.10967836
2,14, 1,14, 0,15, 0.00,60.00,Saturday
8,16179476.259129845
1603,82950235.6587792
2,14, 1,14, 0,16, 0.00,60.00,Saturday
8,17434092.881413296
1603,81561036.06163947
2,14, 1,14, 0,17, 0.00,60.00,Saturday
8,16179476.259129845
1603,84386422.04902321
2,14, 1,14, 0,18, 0.00,60.00,Saturday
8,19462676.259129845
1603,85666729.19081086
2,14, 1,14, 0,19, 0.00,60.00,Saturday
8,19462676.259129845
1603,89896604.6849308
2,14, 1,14, 0,20, 0.00,60.00,Saturday
8,19462676.259129845
1603,91191840.60061951
2,14, 1,14, 0,21, 0.00,60.00,Saturday
8,20717316.289404877
1603,93615573.66929315
2,14, 1,14, 0,22, 0.00,60.00,Saturday
8,19462676.259129845
1603,97529938.88530165
2,14, 1,14, 0,23, 0.00,60.00,Saturday
8,19462676.259129845
1603,92829807.80126214
2,14, 1,14, 0,24, 0.00,60.00,Saturday
8,19462676.259129845
1603,94145593.06106311
2,15, 1,15, 0, 1, 0.00,60.00,Sunday
8,18349952.259129845
1603,89287454.83283032
2,15, 1,15, 0, 2, 0.00,60.00,Sunday
8,19604615.659114845
1603,90395446.4275121
2,15, 1,15, 0, 3, 0.00,60.00,Sunday
8,18349952.259129845
1603,86677347.109863
2,15, 1,15, 0, 4, 0.00,60.00,Sunday
8,18349952.259129845
1603,85434768.29185064
2,15, 1,15, 0, 5, 0.00,60.00,Sunday
8,18349952.259129845
1603,88296279.8624437
2,15, 1,15, 0, 6, 0.00,60.00,Sunday
8,18349952.259129845
1603,85874005.25838342
2,15, 1,15, 0, 7, 0.00,60.00,Sunday
8,20717362.990637932
1603,87392115.83657384
2,15, 1,15, 0, 8, 0.00,60.00,Sunday
8,19462676.259129845
1603,88604673.3449031
2,15, 1,15, 0, 9, 0.00,60.00,Sunday
8,19462676.259129845
1603,92358075.56957066
2,15, 1,15, 0,10, 0.00,60.00,Sunday
8,19462676.259129845
1603,92801353.40930699
2,15, 1,15, 0,11, 0.00,60.00,Sunday
8,16179476.259129845
1603,97815518.00131491
2,15, 1,15, 0,12, 0.00,60.00,Sunday
8,17434186.284068562
1603,91580546.80350202
2,15, 1,15, 0,13, 0.00,60.00,Sunday
8,16179476.259129845
1603,92335523.45138288
2,15, 1,15, 0,14, 0.00,60.00,Sunday
8,16179476.259129845
1603,89680765.07796964
2,15, 1,15, 0,15, 0.00,60.00,Sunday
8,16179476.259129845
1603,88838088.18094704
2,15, 1,15, 0,16, 0.00,60.00,Sunday
8,17433999.51527256
1603,90881967.30897407
2,15, 1,15, 0,17, 0.00,60.00,Sunday
8,16179476.259129845
1603,90442575.63735637
2,15, 1,15, 0,18, 0.00,60.00,Sunday
8,19462676.259129845
1603,91183817.51686884
2,15, 1,15, 0,19, 0.00,60.00,Sunday
8,19462676.259129845
1603,88773078.11113447
2,15, 1,15, 0,20, 0.00,60.00,Sunday
8,19462676.259129845
1603,91363185.30444703
2,15, 1,15, 0,21, 0.00,60.00,Sunday
8,20717223.0762763
1603,86258982.96719411
2,15, 1,15, 0,22, 0.00,60.00,Sunday
8,19462676.259129845
1603,88585823.9006493
2,15, 1,15, 0,23, 0.00,60.00,Sunday
8,19462676.259129845
1603,82665880.68779959
2,15, 1,15, 0,24, 0.00,60.00,Sunday
8,19462676.259129845
1603,83676248.52265245
2,16, 1,16, 0, 1, 0.00,60.00,Monday
8,19939764.40337017
1603,76939383.7484289
2,16, 1,16, 0, 2, 0.00,60.00,Monday
8,21338863.11960843
1603,76981378.4560925
2,16, 1,16, 0, 3, 0.00,60.00,Monday
8,20084292.78011929
1603,84910744.29816727
2,16, 1,16, 0, 4, 0.00,60.00,Monday
8,20084292.78011929