Program Version,EnergyPlus, Version 22.2.0-aa78da9668, YMD=2023.04.10 12:11
1,5,Environment Title[],Latitude[deg],Longitude[deg],Time Zone[],Elevation[m]
2,8,Day of Simulation[],Month[],Day of Month[],DST Indicator[1=yes 0=no],Hour[],StartMinute[],EndMinute[],DayType
3,5,Cumulative Day of Simulation[],Month[],Day of Month[],DST Indicator[1=yes 0=no],DayType  ! When Daily Report Variables Requested
4,2,Cumulative Days of Simulation[],Month[]  ! When Monthly Report Variables Requested
5,1,Cumulative Days of Simulation[] ! When Run Period Report Variables Requested
6,1,Calendar Year of Simulation[] ! When Annual Report Variables Requested
8,1,Electricity:Facility [J] !TimeStep
1603,1,NaturalGas:Facility [J] !TimeStep
End of Data Dictionary
1,KODIAK ANN CLG .4% CONDNS DB=>MWB HVAC Sizing Pass 1,  57.75,-152.49,  -9.00,  34.00
2,1, 8,21, 0, 1, 0.00,10.00,SummerDesignDay
8,13625774.954985227
1603,0.0
2,1, 8,21, 0, 1,10.00,20.00,SummerDesignDay
8,13609356.311217355
1603,0.0
2,1, 8,21, 0, 1,20.00,30.00,SummerDesignDay
8,13593021.511103358
1603,0.0
2,1, 8,21, 0, 1,30.00,40.00,SummerDesignDay
8,13576757.427090084
1603,0.0
2,1, 8,21, 0, 1,40.00,50.00,SummerDesignDay
8,13560553.002083622
1603,0.0
2,1, 8,21, 0, 1,50.00,60.00,SummerDesignDay
8,13544399.152258663
1603,0.0
2,1, 8,21, 0, 2, 0.00,10.00,SummerDesignDay
8,13531185.800418833
1603,0.0
2,1, 8,21, 0, 2,10.00,20.00,SummerDesignDay
8,13518035.283673106
1603,0.0
2,1, 8,21, 0, 2,20.00,30.00,SummerDesignDay
8,13504956.784407366
1603,0.0
2,1, 8,21, 0, 2,30.00,40.00,SummerDesignDay
8,13491946.723805688
1603,837627.3022351842
2,1, 8,21, 0, 2,40.00,50.00,SummerDesignDay
8,13478999.571263507
1603,1000471.8659279185
2,1, 8,21, 0, 2,50.00,60.00,SummerDesignDay
8,13466109.28621414
1603,0.0
2,1, 8,21, 0, 3, 0.00,10.00,SummerDesignDay
8,13454742.64720754
1603,0.0
2,1, 8,21, 0, 3,10.00,20.00,SummerDesignDay
8,13443397.90308771
1603,0.0
2,1, 8,21, 0, 3,20.00,30.00,SummerDesignDay
8,13432115.760711133
1603,0.0
2,1, 8,21, 0, 3,30.00,40.00,SummerDesignDay
8,13420893.245807486
1603,0.0
2,1, 8,21, 0, 3,40.00,50.00,SummerDesignDay
8,13409726.016762452
1603,0.0
2,1, 8,21, 0, 3,50.00,60.00,SummerDesignDay
8,13398609.910208857
1603,0.0
2,1, 8,21, 0, 4, 0.00,10.00,SummerDesignDay
8,13387541.144341208
1603,0.0
2,1, 8,21, 0, 4,10.00,20.00,SummerDesignDay
8,13376516.607537238
1603,0.0
2,1, 8,21, 0, 4,20.00,30.00,SummerDesignDay
8,13365533.535893984
1603,1147055.8929425825
2,1, 8,21, 0, 4,30.00,40.00,SummerDesignDay
8,13354589.930128155
1603,691077.5328689781
2,1, 8,21, 0, 4,40.00,50.00,SummerDesignDay
8,13343684.174687272
1603,0.0
2,1, 8,21, 0, 4,50.00,60.00,SummerDesignDay
8,13332815.130993927
1603,0.0
2,1, 8,21, 0, 5, 0.00,10.00,SummerDesignDay
8,13323382.162206706
1603,0.0
2,1, 8,21, 0, 5,10.00,20.00,SummerDesignDay
8,13314009.870941252
1603,0.0
2,1, 8,21, 0, 5,20.00,30.00,SummerDesignDay
8,13304692.19214759
1603,0.0
2,1, 8,21, 0, 5,30.00,40.00,SummerDesignDay
8,13295428.91846334
1603,0.0
2,1, 8,21, 0, 5,40.00,50.00,SummerDesignDay
8,13286218.030939655
1603,0.0
2,1, 8,21, 0, 5,50.00,60.00,SummerDesignDay
8,14531773.72909629
1603,0.0
2,1, 8,21, 0, 6, 0.00,10.00,SummerDesignDay
8,13273515.235112557
1603,146350.64960479873
2,1, 8,21, 0, 6,10.00,20.00,SummerDesignDay
8,13270128.991950572
1603,1310043.1717517846
2,1, 8,21, 0, 6,20.00,30.00,SummerDesignDay
8,13266873.983033445
1603,381760.8607000471
2,1, 8,21, 0, 6,30.00,40.00,SummerDesignDay
8,13263748.851824543
1603,0.0
2,1, 8,21, 0, 6,40.00,50.00,SummerDesignDay
8,13260745.64629051
1603,0.0
2,1, 8,21, 0, 6,50.00,60.00,SummerDesignDay
8,12916415.517865796
1603,0.0
2,1, 8,21, 0, 7, 0.00,10.00,SummerDesignDay
8,12939228.216495045
1603,0.0
2,1, 8,21, 0, 7,10.00,20.00,SummerDesignDay
8,12967266.190656314
1603,0.0
2,1, 8,21, 0, 7,20.00,30.00,SummerDesignDay
8,12998806.297716083
1603,0.0
2,1, 8,21, 0, 7,30.00,40.00,SummerDesignDay
8,13031856.545116927
1603,0.0
2,1, 8,21, 0, 7,40.00,50.00,SummerDesignDay
8,13066192.18625468
1603,0.0
2,1, 8,21, 0, 7,50.00,60.00,SummerDesignDay
8,13101790.271064915
1603,455695.61692946084
2,1, 8,21, 0, 8, 0.00,10.00,SummerDesignDay
8,13152299.53383884
1603,1310043.1717517846
2,1, 8,21, 0, 8,10.00,20.00,SummerDesignDay
8,13200663.381310755
1603,1310043.1717517846
2,1, 8,21, 0, 8,20.00,30.00,SummerDesignDay
8,13247018.204260373
1603,1310043.1717517846
2,1, 8,21, 0, 8,30.00,40.00,SummerDesignDay
8,13293442.243891718
1603,450774.36709125113
2,1, 8,21, 0, 8,40.00,50.00,SummerDesignDay
8,13342596.3679629
1603,0.0
2,1, 8,21, 0, 8,50.00,60.00,SummerDesignDay
8,13395217.04374429
1603,1180185.4720406055
2,1, 8,21, 0, 9, 0.00,10.00,SummerDesignDay
8,13453484.331780534
1603,1310043.1717517846
2,1, 8,21, 0, 9,10.00,20.00,SummerDesignDay
8,13513801.100744197
1603,1310043.1717517846
2,1, 8,21, 0, 9,20.00,30.00,SummerDesignDay
8,13576364.154729057
1603,1310043.1717517846
2,1, 8,21, 0, 9,30.00,40.00,SummerDesignDay
8,13640957.92314894
1603,516402.9502477203
2,1, 8,21, 0, 9,40.00,50.00,SummerDesignDay
8,13707016.087185724
1603,0.0
2,1, 8,21, 0, 9,50.00,60.00,SummerDesignDay
8,13774291.215373749
1603,1185987.8088134837
2,1, 8,21, 0,10, 0.00,10.00,SummerDesignDay
8,13839139.63296986
1603,1310043.1717517846
2,1, 8,21, 0,10,10.00,20.00,SummerDesignDay
8,13904442.724595193
1603,1310043.1717517846
2,1, 8,21, 0,10,20.00,30.00,SummerDesignDay
8,13969963.038141716
1603,1310043.1717517846
2,1, 8,21, 0,10,30.00,40.00,SummerDesignDay
8,14035463.074839782
1603,1037681.8220303211
2,1, 8,21, 0,10,40.00,50.00,SummerDesignDay
8,15355477.43591394
1603,0.0
2,1, 8,21, 0,10,50.00,60.00,SummerDesignDay
8,14165714.50899781
1603,750288.491267313
2,1, 8,21, 0,11, 0.00,10.00,SummerDesignDay
8,14226763.146082912
1603,1310043.1717517846
2,1, 8,21, 0,11,10.00,20.00,SummerDesignDay
8,14287180.675671365
1603,1310043.1717517846
2,1, 8,21, 0,11,20.00,30.00,SummerDesignDay
8,14346815.519051967
1603,1310043.1717517846
2,1, 8,21, 0,11,30.00,40.00,SummerDesignDay
8,14404436.145175736
1603,1310043.1717517846
2,1, 8,21, 0,11,40.00,50.00,SummerDesignDay
8,14461854.188110083
1603,310560.38240366575
2,1, 8,21, 0,11,50.00,60.00,SummerDesignDay
8,14518200.721244594
1603,167332.64440438402
2,1, 8,21, 0,12, 0.00,10.00,SummerDesignDay
8,14564612.303732008
1603,1310043.1717517846
2,1, 8,21, 0,12,10.00,20.00,SummerDesignDay
8,14609535.433780832
1603,1310043.1717517846
2,1, 8,21, 0,12,20.00,30.00,SummerDesignDay
8,14652855.319146544
1603,1310043.1717517846
2,1, 8,21, 0,12,30.00,40.00,SummerDesignDay
8,14694550.477186386
1603,1310043.1717517846
2,1, 8,21, 0,12,40.00,50.00,SummerDesignDay
8,14734632.312066555
1603,1310043.1717517846
2,1, 8,21, 0,12,50.00,60.00,SummerDesignDay
8,14773143.575656375
1603,1310043.1717517846
2,1, 8,21, 0,13, 0.00,10.00,SummerDesignDay
8,14806513.796561744
1603,588501.9593978832
2,1, 8,21, 0,13,10.00,20.00,SummerDesignDay
8,14838432.012642512
1603,193889.1802836801
2,1, 8,21, 0,13,20.00,30.00,SummerDesignDay
8,14868863.915125268
1603,1310043.1717517846
2,1, 8,21, 0,13,30.00,40.00,SummerDesignDay
8,14898167.998637993
1603,1310043.1717517846
2,1, 8,21, 0,13,40.00,50.00,SummerDesignDay
8,14926644.472908651
1603,1310043.1717517846
2,1, 8,21, 0,13,50.00,60.00,SummerDesignDay
8,14954604.001490703
1603,1310043.1717517846
2,1, 8,21, 0,14, 0.00,10.00,SummerDesignDay
8,14976894.040254084
1603,1310043.1717517846
2,1, 8,21, 0,14,10.00,20.00,SummerDesignDay
8,14999713.04816338
1603,1310043.1717517846
2,1, 8,21, 0,14,20.00,30.00,SummerDesignDay
8,15023079.699794328
1603,1310043.1717517846
2,1, 8,21, 0,14,30.00,40.00,SummerDesignDay
8,15046603.145399047
1603,1310043.1717517846
2,1, 8,21, 0,14,40.00,50.00,SummerDesignDay
8,15070040.805318967
1603,601139.3186321919
2,1, 8,21, 0,14,50.00,60.00,SummerDesignDay
8,15093131.991776677
1603,127970.49597747675
2,1, 8,21, 0,15, 0.00,10.00,SummerDesignDay
8,15106312.298982615
1603,1310043.1717517846
2,1, 8,21, 0,15,10.00,20.00,SummerDesignDay
8,15118507.020476598
1603,1310043.1717517846
2,1, 8,21, 0,15,20.00,30.00,SummerDesignDay
8,15129513.11419514
1603,1310043.1717517846
2,1, 8,21, 0,15,30.00,40.00,SummerDesignDay
8,16393888.945728911
1603,1310043.1717517846
2,1, 8,21, 0,15,40.00,50.00,SummerDesignDay
8,15147420.028753975
1603,315072.6755054327
2,1, 8,21, 0,15,50.00,60.00,SummerDesignDay
8,15154113.499344235
1603,62988.18231121721
2,1, 8,21, 0,16, 0.00,10.00,SummerDesignDay
8,15147919.27587221
1603,1310043.1717517846
2,1, 8,21, 0,16,10.00,20.00,SummerDesignDay
8,15139843.979206782
1603,1310043.1717517846
2,1, 8,21, 0,16,20.00,30.00,SummerDesignDay
8,15129747.829405824
1603,1310043.1717517846
2,1, 8,21, 0,16,30.00,40.00,SummerDesignDay
8,15117596.906494282
1603,1310043.1717517846
2,1, 8,21, 0,16,40.00,50.00,SummerDesignDay
8,15104368.988618515
1603,270098.916160183
2,1, 8,21, 0,16,50.00,60.00,SummerDesignDay
8,15088344.935088847
1603,108483.62281313553
2,1, 8,21, 0,17, 0.00,10.00,SummerDesignDay
8,15066504.231788283
1603,1310043.1717517846
2,1, 8,21, 0,17,10.00,20.00,SummerDesignDay
8,15042524.462384367
1603,1310043.1717517846
2,1, 8,21, 0,17,20.00,30.00,SummerDesignDay
8,15016427.622323466
1603,1310043.1717517846
2,1, 8,21, 0,17,30.00,40.00,SummerDesignDay
8,14988253.529651636
1603,1310043.1717517846
2,1, 8,21, 0,17,40.00,50.00,SummerDesignDay
8,14957960.199031098
1603,1310043.1717517846
2,1, 8,21, 0,17,50.00,60.00,SummerDesignDay
8,14925740.84415594
1603,521600.2172587975
2,1, 8,21, 0,18, 0.00,10.00,SummerDesignDay
8,14888095.253080942
1603,0.0
2,1, 8,21, 0,18,10.00,20.00,SummerDesignDay
8,14848720.46146389
1603,1123981.6402925744
2,1, 8,21, 0,18,20.00,30.00,SummerDesignDay
8,14807708.295090735
1603,1310043.1717517846
2,1, 8,21, 0,18,30.00,40.00,SummerDesignDay
8,14765221.748546397
1603,1310043.1717517846
2,1, 8,21, 0,18,40.00,50.00,SummerDesignDay
8,14721480.505716013
1603,783602.4706295152
2,1, 8,21, 0,18,50.00,60.00,SummerDesignDay
8,14676597.469293127
1603,0.0
2,1, 8,21, 0,19, 0.00,10.00,SummerDesignDay
8,14622139.030930994
1603,675203.7068987929
2,1, 8,21, 0,19,10.00,20.00,SummerDesignDay
8,14566847.501514815
1603,1310043.1717517846
2,1, 8,21, 0,19,20.00,30.00,SummerDesignDay
8,14511240.007404799
1603,1310043.1717517846
2,1, 8,21, 0,19,30.00,40.00,SummerDesignDay
8,14455338.840607444
1603,1233485.8484138912
2,1, 8,21, 0,19,40.00,50.00,SummerDesignDay
8,14399975.188753683
1603,0.0
2,1, 8,21, 0,19,50.00,60.00,SummerDesignDay
8,14347321.8926713
1603,226096.64326391515
2,1, 8,21, 0,20, 0.00,10.00,SummerDesignDay
8,14304476.414147763
1603,1310043.1717517846
2,1, 8,21, 0,20,10.00,20.00,SummerDesignDay
8,14263384.558877224
1603,1310043.1717517846
2,1, 8,21, 0,20,20.00,30.00,SummerDesignDay
8,14220454.8372427
1603,992797.3419876759
2,1, 8,21, 0,20,30.00,40.00,SummerDesignDay
8,15429032.17030991
1603,0.0
2,1, 8,21, 0,20,40.00,50.00,SummerDesignDay
8,14124769.380633982
1603,167749.85448839076
2,1, 8,21, 0,20,50.00,60.00,SummerDesignDay
8,14070738.903328171
1603,1310043.1717517846
2,1, 8,21, 0,21, 0.00,10.00,SummerDesignDay
8,14016346.629709365
1603,1310043.1717517846
2,1, 8,21, 0,21,10.00,20.00,SummerDesignDay
8,13958396.3551659
1603,1181359.8689697355
2,1, 8,21, 0,21,20.00,30.00,SummerDesignDay
8,13899060.905354023
1603,0.0
2,1, 8,21, 0,21,30.00,40.00,SummerDesignDay
8,14380678.072771136
1603,129548.96471473214
2,1, 8,21, 0,21,40.00,50.00,SummerDesignDay
8,14327728.037730167
1603,1310043.1717517846
2,1, 8,21, 0,21,50.00,60.00,SummerDesignDay
8,14279989.171369636
1603,1310043.1717517846
2,1, 8,21, 0,22, 0.00,10.00,SummerDesignDay
8,14236805.272194272
1603,1169454.5372165134
2,1, 8,21, 0,22,10.00,20.00,SummerDesignDay
8,14197603.91361766
1603,0.0
2,1, 8,21, 0,22,20.00,30.00,SummerDesignDay
8,14161790.873294607
1603,0.0
2,1, 8,21, 0,22,30.00,40.00,SummerDesignDay
8,14128978.659745378
1603,1135004.04825647
2,1, 8,21, 0,22,40.00,50.00,SummerDesignDay
8,14098490.766472464
1603,1310043.1717517846
2,1, 8,21, 0,22,50.00,60.00,SummerDesignDay
8,14069869.142036952
1603,1062595.082312117
2,1, 8,21, 0,23, 0.00,10.00,SummerDesignDay
8,14045371.860207403
1603,0.0
2,1, 8,21, 0,23,10.00,20.00,SummerDesignDay
8,14022590.359617855
1603,0.0
2,1, 8,21, 0,23,20.00,30.00,SummerDesignDay
8,14000854.770592088
1603,0.0
2,1, 8,21, 0,23,30.00,40.00,SummerDesignDay
8,13979967.1445519
1603,0.0
2,1, 8,21, 0,23,40.00,50.00,SummerDesignDay
8,13959762.31177742
1603,0.0
2,1, 8,21, 0,23,50.00,60.00,SummerDesignDay
8,13940103.531765025
1603,0.0
2,1, 8,21, 0,24, 0.00,10.00,SummerDesignDay
8,13920879.411269967
1603,0.0
2,1, 8,21, 0,24,10.00,20.00,SummerDesignDay
8,13901999.705510817
1603,0.0
2,1, 8,21, 0,24,20.00,30.00,SummerDesignDay
8,13883391.970151588
1603,565101.8695820204
2,1, 8,21, 0,24,30.00,40.00,SummerDesignDay
8,13864998.112420255
1603,1273048.8418775701
2,1, 8,21, 0,24,40.00,50.00,SummerDesignDay
8,13846772.356170619
1603,0.0
2,1, 8,21, 0,24,50.00,60.00,SummerDesignDay
8,13828678.61571848
1603,0.0
1,KODIAK ANN CLG .4% CONDNS WB=>MDB HVAC Sizing Pass 1,  57.75,-152.49,  -9.00,  34.00
2,1, 8,21, 0, 1, 0.00,10.00,SummerDesignDay
8,13471861.465432737
1603,0.0
2,1, 8,21, 0, 1,10.00,20.00,SummerDesignDay
8,13455469.482128771
1603,0.0
2,1, 8,21, 0, 1,20.00,30.00,SummerDesignDay
8,13439139.004151316
1603,0.0
2,1, 8,21, 0, 1,30.00,40.00,SummerDesignDay
8,13422857.25000335
1603,0.0
2,1, 8,21, 0, 1,40.00,50.00,SummerDesignDay
8,13406613.82060115
1603,0.0
2,1, 8,21, 0, 1,50.00,60.00,SummerDesignDay
8,13390400.054682527
1603,0.0
2,1, 8,21, 0, 2, 0.00,10.00,SummerDesignDay
8,13377159.817177998
1603,0.0
2,1, 8,21, 0, 2,10.00,20.00,SummerDesignDay
8,13363963.747839259
1603,0.0
2,1, 8,21, 0, 2,20.00,30.00,SummerDesignDay
8,13350820.537194384
1603,0.0
2,1, 8,21, 0, 2,30.00,40.00,SummerDesignDay
8,13337727.368745802
1603,837627.3022351842
2,1, 8,21, 0, 2,40.00,50.00,SummerDesignDay
8,13324679.683121327
1603,1000471.8659279185
2,1, 8,21, 0, 2,50.00,60.00,SummerDesignDay
8,13311672.448417915
1603,0.0
2,1, 8,21, 0, 3, 0.00,10.00,SummerDesignDay
8,13300211.57295996
1603,0.0
2,1, 8,21, 0, 3,10.00,20.00,SummerDesignDay
8,13288751.637690356
1603,0.0
2,1, 8,21, 0, 3,20.00,30.00,SummerDesignDay
8,13277338.947217695
1603,0.0
2,1, 8,21, 0, 3,30.00,40.00,SummerDesignDay
8,13265971.868825547
1603,0.0
2,1, 8,21, 0, 3,40.00,50.00,SummerDesignDay
8,13254647.110166337
1603,0.0
2,1, 8,21, 0, 3,50.00,60.00,SummerDesignDay
8,13243361.184174363
1603,0.0
2,1, 8,21, 0, 4, 0.00,10.00,SummerDesignDay
8,13232097.530295007
1603,0.0
2,1, 8,21, 0, 4,10.00,20.00,SummerDesignDay
8,13220894.671284115
1603,0.0
2,1, 8,21, 0, 4,20.00,30.00,SummerDesignDay
8,13209703.084764626
1603,1147055.8929425825
2,1, 8,21, 0, 4,30.00,40.00,SummerDesignDay
8,13198547.918753454
1603,691077.5328689781
2,1, 8,21, 0, 4,40.00,50.00,SummerDesignDay
8,13187420.118063252
1603,0.0
2,1, 8,21, 0, 4,50.00,60.00,SummerDesignDay
8,13176319.549608847
1603,0.0
2,1, 8,21, 0, 5, 0.00,10.00,SummerDesignDay
8,13166682.135957424
1603,0.0
2,1, 8,21, 0, 5,10.00,20.00,SummerDesignDay
8,13157099.414480412
1603,0.0
2,1, 8,21, 0, 5,20.00,30.00,SummerDesignDay
8,13147563.442164108
1603,0.0
2,1, 8,21, 0, 5,30.00,40.00,SummerDesignDay
8,13138060.85132742
1603,0.0
2,1, 8,21, 0, 5,40.00,50.00,SummerDesignDay
8,13128631.692912443
1603,0.0
2,1, 8,21, 0, 5,50.00,60.00,SummerDesignDay
8,14373943.587517064
1603,0.0
2,1, 8,21, 0, 6, 0.00,10.00,SummerDesignDay
8,13115599.425359184
1603,146350.64960479873
2,1, 8,21, 0, 6,10.00,20.00,SummerDesignDay
8,13112119.554276593
1603,1310043.1717517846
2,1, 8,21, 0, 6,20.00,30.00,SummerDesignDay
8,13108762.99221605
1603,381760.8607000471
2,1, 8,21, 0, 6,30.00,40.00,SummerDesignDay
8,13105528.99995652
1603,0.0
2,1, 8,21, 0, 6,40.00,50.00,SummerDesignDay
8,13102534.233724533
1603,0.0
2,1, 8,21, 0, 6,50.00,60.00,SummerDesignDay
8,12759871.726088988
1603,0.0
2,1, 8,21, 0, 7, 0.00,10.00,SummerDesignDay
8,12784519.570373353
1603,0.0
2,1, 8,21, 0, 7,10.00,20.00,SummerDesignDay
8,12813780.456909174
1603,0.0
2,1, 8,21, 0, 7,20.00,30.00,SummerDesignDay
8,12847015.536800383
1603,0.0
2,1, 8,21, 0, 7,30.00,40.00,SummerDesignDay
8,12881791.07575441
1603,0.0
2,1, 8,21, 0, 7,40.00,50.00,SummerDesignDay
8,12917829.879810005
1603,0.0
2,1, 8,21, 0, 7,50.00,60.00,SummerDesignDay
8,12955109.003968446
1603,455695.61692946084
2,1, 8,21, 0, 8, 0.00,10.00,SummerDesignDay
8,13007568.835476104
1603,1310043.1717517846
2,1, 8,21, 0, 8,10.00,20.00,SummerDesignDay
8,13057650.069709808
1603,1310043.1717517846
2,1, 8,21, 0, 8,20.00,30.00,SummerDesignDay
8,13105331.909563689
1603,1310043.1717517846
2,1, 8,21, 0, 8,30.00,40.00,SummerDesignDay
8,13152981.18200598
1603,450774.36717870244
2,1, 8,21, 0, 8,40.00,50.00,SummerDesignDay
8,13203411.13143862
1603,0.0
2,1, 8,21, 0, 8,50.00,60.00,SummerDesignDay
8,13257429.536094634
1603,1180185.4720150258
2,1, 8,21, 0, 9, 0.00,10.00,SummerDesignDay
8,13317006.035858635
1603,1310043.1717517846
2,1, 8,21, 0, 9,10.00,20.00,SummerDesignDay
8,13379400.777733492
1603,1310043.1717517846
2,1, 8,21, 0, 9,20.00,30.00,SummerDesignDay
8,13442696.67737831
1603,1310043.1717517846
2,1, 8,21, 0, 9,30.00,40.00,SummerDesignDay
8,13508260.89997531
1603,516402.95051869255
2,1, 8,21, 0, 9,40.00,50.00,SummerDesignDay
8,13575344.925903698
1603,0.0
2,1, 8,21, 0, 9,50.00,60.00,SummerDesignDay
8,13643515.016820012
1603,1185987.808552342
2,1, 8,21, 0,10, 0.00,10.00,SummerDesignDay
8,13709156.418608677
1603,1310043.1717517846
2,1, 8,21, 0,10,10.00,20.00,SummerDesignDay
8,13775040.095604643
1603,1310043.1717517846
2,1, 8,21, 0,10,20.00,30.00,SummerDesignDay
8,13841157.116636122
1603,1310043.1717517846
2,1, 8,21, 0,10,30.00,40.00,SummerDesignDay
8,13906623.486788072
1603,1037681.822338624
2,1, 8,21, 0,10,40.00,50.00,SummerDesignDay
8,15227311.6491216
1603,0.0
2,1, 8,21, 0,10,50.00,60.00,SummerDesignDay
8,14037542.868212879
1603,750288.4909592033
2,1, 8,21, 0,11, 0.00,10.00,SummerDesignDay
8,14098672.60291259
1603,1310043.1717517846
2,1, 8,21, 0,11,10.00,20.00,SummerDesignDay
8,14158914.269046806
1603,1310043.1717517846
2,1, 8,21, 0,11,20.00,30.00,SummerDesignDay
8,14218152.306716848
1603,1310043.1717517846
2,1, 8,21, 0,11,30.00,40.00,SummerDesignDay
8,14275030.203176428
1603,1310043.1717517846
2,1, 8,21, 0,11,40.00,50.00,SummerDesignDay
8,14331456.800465012
1603,310560.38271185255
2,1, 8,21, 0,11,50.00,60.00,SummerDesignDay
8,14386689.951317502
1603,167332.64409607014
2,1, 8,21, 0,12, 0.00,10.00,SummerDesignDay
8,14432507.69056642
1603,1310043.1717517846
2,1, 8,21, 0,12,10.00,20.00,SummerDesignDay
8,14476298.541982984
1603,1310043.1717517846
2,1, 8,21, 0,12,20.00,30.00,SummerDesignDay
8,14518641.79632269
1603,1310043.1717517846
2,1, 8,21, 0,12,30.00,40.00,SummerDesignDay
8,14559282.46824191
1603,1310043.1717517846
2,1, 8,21, 0,12,40.00,50.00,SummerDesignDay
8,14598265.922323313
1603,1310043.1717517846
2,1, 8,21, 0,12,50.00,60.00,SummerDesignDay
8,14635649.410470026
1603,1310043.1717517846
2,1, 8,21, 0,13, 0.00,10.00,SummerDesignDay
8,14667911.074318415
1603,588501.9599929623
2,1, 8,21, 0,13,10.00,20.00,SummerDesignDay
8,14698709.836182563
1603,193889.17969286433
2,1, 8,21, 0,13,20.00,30.00,SummerDesignDay
8,14728035.549287783
1603,1310043.1717517846
2,1, 8,21, 0,13,30.00,40.00,SummerDesignDay
8,14756257.149724485
1603,1310043.1717517846
2,1, 8,21, 0,13,40.00,50.00,SummerDesignDay
8,14783685.658066371
1603,1310043.1717517846
2,1, 8,21, 0,13,50.00,60.00,SummerDesignDay
8,14810633.301258173
1603,1310043.1717517846
2,1, 8,21, 0,14, 0.00,10.00,SummerDesignDay
8,14831983.688384758
1603,1310043.1717517846
2,1, 8,21, 0,14,10.00,20.00,SummerDesignDay
8,14853854.21430058
1603,1310043.1717517846
2,1, 8,21, 0,14,20.00,30.00,SummerDesignDay
8,14876298.448763901
1603,1310043.1717517846
2,1, 8,21, 0,14,30.00,40.00,SummerDesignDay
8,14898960.182700079
1603,1310043.1717517846
2,1, 8,21, 0,14,40.00,50.00,SummerDesignDay
8,14921595.877257274
1603,601139.3191219982
2,1, 8,21, 0,14,50.00,60.00,SummerDesignDay
8,14943931.435336294
1603,127970.49548778054
2,1, 8,21, 0,15, 0.00,10.00,SummerDesignDay
8,14956473.537771666
1603,1310043.1717517846
2,1, 8,21, 0,15,10.00,20.00,SummerDesignDay
8,14968065.686405452
1603,1310043.1717517846
2,1, 8,21, 0,15,20.00,30.00,SummerDesignDay
8,14978499.828603914
1603,1310043.1717517846
2,1, 8,21, 0,15,30.00,40.00,SummerDesignDay
8,16242321.92047606
1603,1310043.1717517846
2,1, 8,21, 0,15,40.00,50.00,SummerDesignDay
8,14995273.265459433
1603,315072.6757813462
2,1, 8,21, 0,15,50.00,60.00,SummerDesignDay
8,15001515.909912929
1603,62988.18203500249
2,1, 8,21, 0,16, 0.00,10.00,SummerDesignDay
8,14994921.839299252
1603,1310043.1717517846
2,1, 8,21, 0,16,10.00,20.00,SummerDesignDay
8,14986502.90838594
1603,1310043.1717517846
2,1, 8,21, 0,16,20.00,30.00,SummerDesignDay
8,14976086.709141381
1603,1310043.1717517846
2,1, 8,21, 0,16,30.00,40.00,SummerDesignDay
8,14963642.792639622
1603,1310043.1717517846
2,1, 8,21, 0,16,40.00,50.00,SummerDesignDay
8,14950216.793573214
1603,270098.91643647896
2,1, 8,21, 0,16,50.00,60.00,SummerDesignDay
8,14933949.396635015
1603,108483.62253694315
2,1, 8,21, 0,17, 0.00,10.00,SummerDesignDay
8,14911935.852322094
1603,1310043.1717517846
2,1, 8,21, 0,17,10.00,20.00,SummerDesignDay
8,14887816.097355265
1603,1310043.1717517846
2,1, 8,21, 0,17,20.00,30.00,SummerDesignDay
8,14861607.206655381
1603,1310043.1717517846
2,1, 8,21, 0,17,30.00,40.00,SummerDesignDay
8,14833339.45021093
1603,1310043.1717517846
2,1, 8,21, 0,17,40.00,50.00,SummerDesignDay
8,14802980.466147223
1603,1310043.1717517846
2,1, 8,21, 0,17,50.00,60.00,SummerDesignDay
8,14770752.219594216
1603,521600.2176119709
2,1, 8,21, 0,18, 0.00,10.00,SummerDesignDay
8,14733107.42068163
1603,0.0
2,1, 8,21, 0,18,10.00,20.00,SummerDesignDay
8,14693767.27478073
1603,1123981.6398673423
2,1, 8,21, 0,18,20.00,30.00,SummerDesignDay
8,14652689.77476272
1603,1310043.1717517846
2,1, 8,21, 0,18,30.00,40.00,SummerDesignDay
8,14610159.37974432
1603,1310043.1717517846
2,1, 8,21, 0,18,40.00,50.00,SummerDesignDay
8,14566277.55746547
1603,783602.4710533619
2,1, 8,21, 0,18,50.00,60.00,SummerDesignDay
8,14521307.653025135
1603,0.0
2,1, 8,21, 0,19, 0.00,10.00,SummerDesignDay
8,14466885.134901756
1603,675203.706474433
2,1, 8,21, 0,19,10.00,20.00,SummerDesignDay
8,14411806.01081761
1603,1310043.1717517846
2,1, 8,21, 0,19,20.00,30.00,SummerDesignDay
8,14356244.737314261
1603,1310043.1717517846
2,1, 8,21, 0,19,30.00,40.00,SummerDesignDay
8,14300089.600943405
1603,1233485.8488375114
2,1, 8,21, 0,19,40.00,50.00,SummerDesignDay
8,14244798.422583602
1603,0.0
2,1, 8,21, 0,19,50.00,60.00,SummerDesignDay
8,14192389.592924187
1603,226096.64284079088
2,1, 8,21, 0,20, 0.00,10.00,SummerDesignDay
8,14149919.398540433
1603,1310043.1717517846
2,1, 8,21, 0,20,10.00,20.00,SummerDesignDay
8,14109310.872345561
1603,1310043.1717517846
2,1, 8,21, 0,20,20.00,30.00,SummerDesignDay
8,14067185.000153359
1603,992797.3423442157
2,1, 8,21, 0,20,30.00,40.00,SummerDesignDay
8,15275665.492864111
1603,0.0
2,1, 8,21, 0,20,40.00,50.00,SummerDesignDay
8,13971653.58377707
1603,167749.8541322716
2,1, 8,21, 0,20,50.00,60.00,SummerDesignDay
8,13917330.338050565
1603,1310043.1717517846
2,1, 8,21, 0,21, 0.00,10.00,SummerDesignDay
8,13862521.875612289
1603,1310043.1717517846
2,1, 8,21, 0,21,10.00,20.00,SummerDesignDay
8,13804305.037559804
1603,1181359.8693555675
2,1, 8,21, 0,21,20.00,30.00,SummerDesignDay
8,13744406.337317243
1603,0.0
2,1, 8,21, 0,21,30.00,40.00,SummerDesignDay
8,14224788.9533759
1603,129548.96432889602
2,1, 8,21, 0,21,40.00,50.00,SummerDesignDay
8,14171865.353553843
1603,1310043.1717517846
2,1, 8,21, 0,21,50.00,60.00,SummerDesignDay
8,14123830.414273316
1603,1310043.1717517846
2,1, 8,21, 0,22, 0.00,10.00,SummerDesignDay
8,14080593.015808487
1603,1169454.537550187
2,1, 8,21, 0,22,10.00,20.00,SummerDesignDay
8,14041384.04533576
1603,0.0
2,1, 8,21, 0,22,20.00,30.00,SummerDesignDay
8,14005608.307699861
1603,0.0
2,1, 8,21, 0,22,30.00,40.00,SummerDesignDay
8,13973091.662242383
1603,1135004.0479191644
2,1, 8,21, 0,22,40.00,50.00,SummerDesignDay
8,13942547.452292979
1603,1310043.1717517846
2,1, 8,21, 0,22,50.00,60.00,SummerDesignDay
8,13914161.833842695
1603,1062595.0826494175
2,1, 8,21, 0,23, 0.00,10.00,SummerDesignDay
8,13890209.461149517
1603,0.0
2,1, 8,21, 0,23,10.00,20.00,SummerDesignDay
8,13867263.18150819
1603,0.0
2,1, 8,21, 0,23,20.00,30.00,SummerDesignDay
8,13845873.706755081
1603,0.0
2,1, 8,21, 0,23,30.00,40.00,SummerDesignDay
8,13825144.2307639
1603,0.0
2,1, 8,21, 0,23,40.00,50.00,SummerDesignDay
8,13805113.010080295
1603,0.0
2,1, 8,21, 0,23,50.00,60.00,SummerDesignDay
8,13785618.600548688
1603,0.0
2,1, 8,21, 0,24, 0.00,10.00,SummerDesignDay
8,13766544.161257926
1603,0.0
2,1, 8,21, 0,24,10.00,20.00,SummerDesignDay
8,13747796.780312542
1603,0.0
2,1, 8,21, 0,24,20.00,30.00,SummerDesignDay
8,13729301.902200418
1603,565101.8681684275
2,1, 8,21, 0,24,30.00,40.00,SummerDesignDay
8,13711000.337848373
1603,1273048.8432917797
2,1, 8,21, 0,24,40.00,50.00,SummerDesignDay
8,13692845.34363858
1603,0.0
2,1, 8,21, 0,24,50.00,60.00,SummerDesignDay
8,13674800.2757723
1603,0.0
1,KODIAK ANN HTG 99.6% CONDNS DB HVAC Sizing Pass 1,  57.75,-152.49,  -9.00,  34.00
2,1, 1,21, 0, 1, 0.00,10.00,WinterDesignDay
8,2290084.302125019
1603,34496329.90866578
2,1, 1,21, 0, 1,10.00,20.00,WinterDesignDay
8,2290084.302125019
1603,34496449.80345794
2,1, 1,21, 0, 1,20.00,30.00,WinterDesignDay
8,2290084.302125019
1603,34496568.7746286
2,1, 1,21, 0, 1,30.00,40.00,WinterDesignDay
8,2290084.302125019
1603,34496686.82934199
2,1, 1,21, 0, 1,40.00,50.00,WinterDesignDay
8,2290084.302125019
1603,34496803.97470743
2,1, 1,21, 0, 1,50.00,60.00,WinterDesignDay
8,2290084.302125019
1603,34496920.21777829
2,1, 1,21, 0, 2, 0.00,10.00,WinterDesignDay
8,2290084.302125019
1603,34497035.565552145
2,1, 1,21, 0, 2,10.00,20.00,WinterDesignDay
8,2290084.302125019
1603,34497150.0249732
2,1, 1,21, 0, 2,20.00,30.00,WinterDesignDay
8,2290084.302125019
1603,34497263.602929845
2,1, 1,21, 0, 2,30.00,40.00,WinterDesignDay
8,2290084.302125019
1603,35335003.608493134
2,1, 1,21, 0, 2,40.00,50.00,WinterDesignDay
8,2290084.302125019
1603,35497960.007667065
2,1, 1,21, 0, 2,50.00,60.00,WinterDesignDay
8,2290084.302125019
1603,34497599.11610244
2,1, 1,21, 0, 3, 0.00,10.00,WinterDesignDay
8,2290084.302125019
1603,34497709.23602435
2,1, 1,21, 0, 3,10.00,20.00,WinterDesignDay
8,2290084.302125019
1603,34497818.508128606
2,1, 1,21, 0, 3,20.00,30.00,WinterDesignDay
8,2290084.302125019
1603,34497926.93898746
2,1, 1,21, 0, 3,30.00,40.00,WinterDesignDay
8,2290084.302125019
1603,34498034.535122395
2,1, 1,21, 0, 3,40.00,50.00,WinterDesignDay
8,2290084.302125019
1603,34498141.30300332
2,1, 1,21, 0, 3,50.00,60.00,WinterDesignDay
8,2290084.302125019
1603,34498247.24904933
2,1, 1,21, 0, 4, 0.00,10.00,WinterDesignDay
8,2290084.302125019
1603,34498352.37963019
2,1, 1,21, 0, 4,10.00,20.00,WinterDesignDay
8,2290084.302125019
1603,34498456.70106547
2,1, 1,21, 0, 4,20.00,30.00,WinterDesignDay
8,2290084.302125019
1603,35645616.11256761
2,1, 1,21, 0, 4,30.00,40.00,WinterDesignDay
8,2290084.302125019
1603,35189740.47439912
2,1, 1,21, 0, 4,40.00,50.00,WinterDesignDay
8,2290084.302125019
1603,34498764.87295377
2,1, 1,21, 0, 4,50.00,60.00,WinterDesignDay
8,2290084.302125019
1603,34498866.0200199
2,1, 1,21, 0, 5, 0.00,10.00,WinterDesignDay
8,2290084.302125019
1603,34498966.38880572
2,1, 1,21, 0, 5,10.00,20.00,WinterDesignDay
8,2290084.302125019
1603,34499065.985339865
2,1, 1,21, 0, 5,20.00,30.00,WinterDesignDay
8,2290084.302125019
1603,34499164.815605044
2,1, 1,21, 0, 5,30.00,40.00,WinterDesignDay
8,2290084.302125019
1603,34499262.88553635
2,1, 1,21, 0, 5,40.00,50.00,WinterDesignDay
8,2290084.302125019
1603,34499360.20102315
2,1, 1,21, 0, 5,50.00,60.00,WinterDesignDay
8,3544800.7287903544
1603,34499456.76790834
2,1, 1,21, 0, 6, 0.00,10.00,WinterDesignDay
8,2290084.302125019
1603,34645903.24159454
2,1, 1,21, 0, 6,10.00,20.00,WinterDesignDay
8,2290084.302125019
1603,35809690.850770906
2,1, 1,21, 0, 6,20.00,30.00,WinterDesignDay
8,2290084.302125019
1603,34881502.89540435
2,1, 1,21, 0, 6,30.00,40.00,WinterDesignDay
8,2290084.302125019
1603,34499835.6647076
2,1, 1,21, 0, 6,40.00,50.00,WinterDesignDay
8,2290084.302125019
1603,34499928.57464803
2,1, 1,21, 0, 6,50.00,60.00,WinterDesignDay
8,2290084.302125019
1603,34500020.77010034
2,1, 1,21, 0, 7, 0.00,10.00,WinterDesignDay
8,2475538.3021250186
1603,34500112.2565954
2,1, 1,21, 0, 7,10.00,20.00,WinterDesignDay
8,2475538.3021250186
1603,34500203.039621964
2,1, 1,21, 0, 7,20.00,30.00,WinterDesignDay
8,2475538.3021250186
1603,34500293.12462492
2,1, 1,21, 0, 7,30.00,40.00,WinterDesignDay
8,2475538.3021250186
1603,34500382.51700734
2,1, 1,21, 0, 7,40.00,50.00,WinterDesignDay
8,2475538.3021250186
1603,34500471.222130075
2,1, 1,21, 0, 7,50.00,60.00,WinterDesignDay
8,2475538.3021250186
1603,34956254.86224117
2,1, 1,21, 0, 8, 0.00,10.00,WinterDesignDay
8,2475984.31600178
1603,35810689.76358186
2,1, 1,21, 0, 8,10.00,20.00,WinterDesignDay
8,2475984.31600178
1603,35810776.43867281
2,1, 1,21, 0, 8,20.00,30.00,WinterDesignDay
8,2475984.31600178
1603,35810862.44753201
2,1, 1,21, 0, 8,30.00,40.00,WinterDesignDay
8,2475984.31600178
1603,35344053.82687477
2,1, 1,21, 0, 8,40.00,50.00,WinterDesignDay
8,2475984.31600178
1603,34500989.31538182
2,1, 1,21, 0, 8,50.00,60.00,WinterDesignDay
8,2475984.31600178
1603,35347474.52494469
2,1, 1,21, 0, 9, 0.00,10.00,WinterDesignDay
8,2475984.31600178
1603,35811199.92314568
2,1, 1,21, 0, 9,10.00,20.00,WinterDesignDay
8,2475984.31600178
1603,35811282.67736961
2,1, 1,21, 0, 9,20.00,30.00,WinterDesignDay
8,2475984.31600178
1603,35811364.7956945
2,1, 1,21, 0, 9,30.00,40.00,WinterDesignDay
8,2475984.31600178
1603,35811446.2830388
2,1, 1,21, 0, 9,40.00,50.00,WinterDesignDay
8,2475984.31600178
1603,35197326.42579055
2,1, 1,21, 0, 9,50.00,60.00,WinterDesignDay
8,2475984.31600178
1603,34501564.21251641
2,1, 1,21, 0,10, 0.00,10.00,WinterDesignDay
8,2475984.31600178
1603,35653054.85833205
2,1, 1,21, 0,10,10.00,20.00,WinterDesignDay
8,2475984.31600178
1603,35811766.01964398
2,1, 1,21, 0,10,20.00,30.00,WinterDesignDay
8,2475984.31600178
1603,35811844.42453113
2,1, 1,21, 0,10,30.00,40.00,WinterDesignDay
8,2475984.31600178
1603,35811922.22715347
2,1, 1,21, 0,10,40.00,50.00,WinterDesignDay