Program Version,EnergyPlus, Version 22.2.0-aa78da9668, YMD=2023.02.28 18:40
1,5,Environment Title[],Latitude[deg],Longitude[deg],Time Zone[],Elevation[m]
2,8,Day of Simulation[],Month[],Day of Month[],DST Indicator[1=yes 0=no],Hour[],StartMinute[],EndMinute[],DayType
3,5,Cumulative Day of Simulation[],Month[],Day of Month[],DST Indicator[1=yes 0=no],DayType  ! When Daily Report Variables Requested
4,2,Cumulative Days of Simulation[],Month[]  ! When Monthly Report Variables Requested
5,1,Cumulative Days of Simulation[] ! When Run Period Report Variables Requested
6,1,Calendar Year of Simulation[] ! When Annual Report Variables Requested
8,1,Electricity:Facility [J] !TimeStep
2737,1,NaturalGas:Facility [J] !TimeStep
End of Data Dictionary
1,KODIAK ANN CLG .4% CONDNS DB=>MWB HVAC Sizing Pass 1,  57.75,-152.49,  -9.00,  34.00
2,1, 8,21, 0, 1, 0.00,10.00,SummerDesignDay
8,11183780.678427452
2737,0.0
2,1, 8,21, 0, 1,10.00,20.00,SummerDesignDay
8,11183780.678427452
2737,0.0
2,1, 8,21, 0, 1,20.00,30.00,SummerDesignDay
8,11183780.678427452
2737,0.0
2,1, 8,21, 0, 1,30.00,40.00,SummerDesignDay
8,11183780.678427452
2737,0.0
2,1, 8,21, 0, 1,40.00,50.00,SummerDesignDay
8,11183780.678427452
2737,0.0
2,1, 8,21, 0, 1,50.00,60.00,SummerDesignDay
8,11185823.688144729
2737,0.0
2,1, 8,21, 0, 2, 0.00,10.00,SummerDesignDay
8,11190696.206704156
2737,0.0
2,1, 8,21, 0, 2,10.00,20.00,SummerDesignDay
8,11189059.688851316
2737,0.0
2,1, 8,21, 0, 2,20.00,30.00,SummerDesignDay
8,11190398.07097972
2737,0.0
2,1, 8,21, 0, 2,30.00,40.00,SummerDesignDay
8,11191015.004929977
2737,682591.4963424796
2,1, 8,21, 0, 2,40.00,50.00,SummerDesignDay
8,11191508.796456205
2737,1067568.2626090539
2,1, 8,21, 0, 2,50.00,60.00,SummerDesignDay
8,11191932.639684513
2737,152692.35844283472
2,1, 8,21, 0, 3, 0.00,10.00,SummerDesignDay
8,11192379.165658746
2737,0.0
2,1, 8,21, 0, 3,10.00,20.00,SummerDesignDay
8,11192772.568389235
2737,0.0
2,1, 8,21, 0, 3,20.00,30.00,SummerDesignDay
8,11193118.205812918
2737,0.0
2,1, 8,21, 0, 3,30.00,40.00,SummerDesignDay
8,11193420.908520332
2737,0.0
2,1, 8,21, 0, 3,40.00,50.00,SummerDesignDay
8,11195230.771605715
2737,0.0
2,1, 8,21, 0, 3,50.00,60.00,SummerDesignDay
8,11197514.245297235
2737,0.0
2,1, 8,21, 0, 4, 0.00,10.00,SummerDesignDay
8,11196971.748696914
2737,0.0
2,1, 8,21, 0, 4,10.00,20.00,SummerDesignDay
8,11197682.434858667
2737,0.0
2,1, 8,21, 0, 4,20.00,30.00,SummerDesignDay
8,11197972.106631082
2737,529831.9362016015
2,1, 8,21, 0, 4,30.00,40.00,SummerDesignDay
8,11198132.372486493
2737,1067568.2626090539
2,1, 8,21, 0, 4,40.00,50.00,SummerDesignDay
8,11198200.664159821
2737,305425.143887398
2,1, 8,21, 0, 4,50.00,60.00,SummerDesignDay
8,11198187.96626797
2737,0.0
2,1, 8,21, 0, 5, 0.00,10.00,SummerDesignDay
8,11198264.588777233
2737,0.0
2,1, 8,21, 0, 5,10.00,20.00,SummerDesignDay
8,11198275.717234956
2737,0.0
2,1, 8,21, 0, 5,20.00,30.00,SummerDesignDay
8,11198227.691297028
2737,0.0
2,1, 8,21, 0, 5,30.00,40.00,SummerDesignDay
8,11198125.884905845
2737,0.0
2,1, 8,21, 0, 5,40.00,50.00,SummerDesignDay
8,11197974.777626472
2737,0.0
2,1, 8,21, 0, 5,50.00,60.00,SummerDesignDay
8,12452494.453092335
2737,0.0
2,1, 8,21, 0, 6, 0.00,10.00,SummerDesignDay
8,11995965.677820705
2737,0.0
2,1, 8,21, 0, 6,10.00,20.00,SummerDesignDay
8,11183780.678427452
2737,377021.32741270657
2,1, 8,21, 0, 6,20.00,30.00,SummerDesignDay
8,11230636.029155286
2737,1067568.2626090539
2,1, 8,21, 0, 6,30.00,40.00,SummerDesignDay
8,11575140.253815718
2737,458232.97884898004
2,1, 8,21, 0, 6,40.00,50.00,SummerDesignDay
8,11399118.48968512
2737,0.0
2,1, 8,21, 0, 6,50.00,60.00,SummerDesignDay
8,10994291.28524808
2737,0.0
2,1, 8,21, 0, 7, 0.00,10.00,SummerDesignDay
8,12142438.77538957
2737,13384.379503046113
2,1, 8,21, 0, 7,10.00,20.00,SummerDesignDay
8,10882562.103437712
2737,1067568.2626090539
2,1, 8,21, 0, 7,20.00,30.00,SummerDesignDay
8,11724479.130408108
2737,1067568.2626090539
2,1, 8,21, 0, 7,30.00,40.00,SummerDesignDay
8,11697391.82345329
2737,1067568.2626090539
2,1, 8,21, 0, 7,40.00,50.00,SummerDesignDay
8,11647813.69450921
2737,1067568.2626090539
2,1, 8,21, 0, 7,50.00,60.00,SummerDesignDay
8,11756538.673458042
2737,1067568.2626090539
2,1, 8,21, 0, 8, 0.00,10.00,SummerDesignDay
8,14500526.110378113
2737,1067568.2626090539
2,1, 8,21, 0, 8,10.00,20.00,SummerDesignDay
8,13665159.97226238
2737,1067568.2626090539
2,1, 8,21, 0, 8,20.00,30.00,SummerDesignDay
8,13772596.05500238
2737,1067568.2626090539
2,1, 8,21, 0, 8,30.00,40.00,SummerDesignDay
8,13495127.60393692
2737,630791.7207896789
2,1, 8,21, 0, 8,40.00,50.00,SummerDesignDay
8,13536449.622443793
2737,0.0
2,1, 8,21, 0, 8,50.00,60.00,SummerDesignDay
8,13556153.769266358
2737,485934.3720972809
2,1, 8,21, 0, 9, 0.00,10.00,SummerDesignDay
8,13607253.507027479
2737,1067568.2626090539
2,1, 8,21, 0, 9,10.00,20.00,SummerDesignDay
8,13683616.402103301
2737,1067568.2626090539
2,1, 8,21, 0, 9,20.00,30.00,SummerDesignDay
8,13766574.933072682
2737,1067568.2626090539
2,1, 8,21, 0, 9,30.00,40.00,SummerDesignDay
8,13859062.714061648
2737,1067568.2626090539
2,1, 8,21, 0, 9,40.00,50.00,SummerDesignDay
8,13940542.372619899
2737,1067568.2626090539
2,1, 8,21, 0, 9,50.00,60.00,SummerDesignDay
8,14025877.722709363
2737,1067568.2626090539
2,1, 8,21, 0,10, 0.00,10.00,SummerDesignDay
8,14129633.076660037
2737,1067568.2626090539
2,1, 8,21, 0,10,10.00,20.00,SummerDesignDay
8,14239337.296067672
2737,1067568.2626090539
2,1, 8,21, 0,10,20.00,30.00,SummerDesignDay
8,14352803.564294407
2737,1067568.2626090539
2,1, 8,21, 0,10,30.00,40.00,SummerDesignDay
8,14468483.786368823
2737,1067568.2626090539
2,1, 8,21, 0,10,40.00,50.00,SummerDesignDay
8,15823188.50910205
2737,1067568.2626090539
2,1, 8,21, 0,10,50.00,60.00,SummerDesignDay
8,14684530.875973443
2737,1067568.2626090539
2,1, 8,21, 0,11, 0.00,10.00,SummerDesignDay
8,14794098.796938695
2737,1067568.2626090539
2,1, 8,21, 0,11,10.00,20.00,SummerDesignDay
8,14884651.521979935
2737,1067568.2626090539
2,1, 8,21, 0,11,20.00,30.00,SummerDesignDay
8,14988413.969090251
2737,1067568.2626090539
2,1, 8,21, 0,11,30.00,40.00,SummerDesignDay
8,15081844.072234059
2737,1067568.2626090539
2,1, 8,21, 0,11,40.00,50.00,SummerDesignDay
8,15175298.884671638
2737,1067568.2626090539
2,1, 8,21, 0,11,50.00,60.00,SummerDesignDay
8,15264089.871523535
2737,1067568.2626090539
2,1, 8,21, 0,12, 0.00,10.00,SummerDesignDay
8,15334287.552133422
2737,1067568.2626090539
2,1, 8,21, 0,12,10.00,20.00,SummerDesignDay
8,15398539.135453014
2737,1067568.2626090539
2,1, 8,21, 0,12,20.00,30.00,SummerDesignDay
8,15456487.208562505
2737,1067568.2626090539
2,1, 8,21, 0,12,30.00,40.00,SummerDesignDay
8,15507787.732153896
2737,1067568.2626090539
2,1, 8,21, 0,12,40.00,50.00,SummerDesignDay
8,15552453.831686048
2737,1067568.2626090539
2,1, 8,21, 0,12,50.00,60.00,SummerDesignDay
8,15590595.701607853
2737,1067568.2626090539
2,1, 8,21, 0,13, 0.00,10.00,SummerDesignDay
8,15617043.278011423
2737,1067568.2626090539
2,1, 8,21, 0,13,10.00,20.00,SummerDesignDay
8,15638045.833404256
2737,1067568.2626090539
2,1, 8,21, 0,13,20.00,30.00,SummerDesignDay
8,15654740.175383335
2737,1067568.2626090539
2,1, 8,21, 0,13,30.00,40.00,SummerDesignDay
8,15668636.935791884
2737,1067568.2626090539
2,1, 8,21, 0,13,40.00,50.00,SummerDesignDay
8,15681684.692091772
2737,1067568.2626090539
2,1, 8,21, 0,13,50.00,60.00,SummerDesignDay
8,15696045.648887495
2737,1067568.2626090539
2,1, 8,21, 0,14, 0.00,10.00,SummerDesignDay
8,15705605.36761255
2737,1067568.2626090539
2,1, 8,21, 0,14,10.00,20.00,SummerDesignDay
8,15722201.451423777
2737,1067568.2626090539
2,1, 8,21, 0,14,20.00,30.00,SummerDesignDay
8,15747281.649387652
2737,1067568.2626090539
2,1, 8,21, 0,14,30.00,40.00,SummerDesignDay
8,15780364.88428245
2737,1067568.2626090539
2,1, 8,21, 0,14,40.00,50.00,SummerDesignDay
8,15820510.589743895
2737,1067568.2626090539
2,1, 8,21, 0,14,50.00,60.00,SummerDesignDay
8,15865811.884988956
2737,1067568.2626090539
2,1, 8,21, 0,15, 0.00,10.00,SummerDesignDay
8,15899885.58143881
2737,1067568.2626090539
2,1, 8,21, 0,15,10.00,20.00,SummerDesignDay
8,15935299.205102883
2737,1067568.2626090539
2,1, 8,21, 0,15,20.00,30.00,SummerDesignDay
8,15970549.186127106
2737,1067568.2626090539
2,1, 8,21, 0,15,30.00,40.00,SummerDesignDay
8,17259149.44525952
2737,1067568.2626090539
2,1, 8,21, 0,15,40.00,50.00,SummerDesignDay
8,16035950.51899761
2737,1067568.2626090539
2,1, 8,21, 0,15,50.00,60.00,SummerDesignDay
8,16064232.268347412
2737,1067568.2626090539
2,1, 8,21, 0,16, 0.00,10.00,SummerDesignDay
8,16070767.170010097
2737,1067568.2626090539
2,1, 8,21, 0,16,10.00,20.00,SummerDesignDay
8,16072462.343212571
2737,1067568.2626090539
2,1, 8,21, 0,16,20.00,30.00,SummerDesignDay
8,16068685.748526676
2737,1067568.2626090539
2,1, 8,21, 0,16,30.00,40.00,SummerDesignDay
8,16058968.535978902
2737,1067568.2626090539
2,1, 8,21, 0,16,40.00,50.00,SummerDesignDay
8,16049161.24695734
2737,1067568.2626090539
2,1, 8,21, 0,16,50.00,60.00,SummerDesignDay
8,16028346.017812597
2737,1067568.2626090539
2,1, 8,21, 0,17, 0.00,10.00,SummerDesignDay
8,16011173.67627408
2737,1067568.2626090539
2,1, 8,21, 0,17,10.00,20.00,SummerDesignDay
8,15970195.982907047
2737,1067568.2626090539
2,1, 8,21, 0,17,20.00,30.00,SummerDesignDay
8,15921573.871745706
2737,1067568.2626090539
2,1, 8,21, 0,17,30.00,40.00,SummerDesignDay
8,15865515.040925065
2737,1067568.2626090539
2,1, 8,21, 0,17,40.00,50.00,SummerDesignDay
8,15818570.005150644
2737,1067568.2626090539
2,1, 8,21, 0,17,50.00,60.00,SummerDesignDay
8,15747850.906816404
2737,1067568.2626090539
2,1, 8,21, 0,18, 0.00,10.00,SummerDesignDay
8,15664374.066773271
2737,1067568.2626090539
2,1, 8,21, 0,18,10.00,20.00,SummerDesignDay
8,15574089.53667753
2737,61043.454555278746
2,1, 8,21, 0,18,20.00,30.00,SummerDesignDay
8,15477984.680730687
2737,131372.79419644197
2,1, 8,21, 0,18,30.00,40.00,SummerDesignDay
8,15393581.793004846
2737,1067568.2626090539
2,1, 8,21, 0,18,40.00,50.00,SummerDesignDay
8,15302476.68431321
2737,1067568.2626090539
2,1, 8,21, 0,18,50.00,60.00,SummerDesignDay
8,15194956.921892438
2737,1067568.2626090539
2,1, 8,21, 0,19, 0.00,10.00,SummerDesignDay
8,15077658.57336308
2737,1067568.2626090539
2,1, 8,21, 0,19,10.00,20.00,SummerDesignDay
8,14964035.298196524
2737,1067568.2626090539
2,1, 8,21, 0,19,20.00,30.00,SummerDesignDay
8,14871194.291789476
2737,1067568.2626090539
2,1, 8,21, 0,19,30.00,40.00,SummerDesignDay
8,14781473.349363102
2737,1067568.2626090539
2,1, 8,21, 0,19,40.00,50.00,SummerDesignDay
8,14682294.972633962
2737,603632.0872954493
2,1, 8,21, 0,19,50.00,60.00,SummerDesignDay
8,14588253.738766856
2737,0.0
2,1, 8,21, 0,20, 0.00,10.00,SummerDesignDay
8,14576504.147801585
2737,525022.2693877483
2,1, 8,21, 0,20,10.00,20.00,SummerDesignDay
8,14492950.62995921
2737,1067568.2626090539
2,1, 8,21, 0,20,20.00,30.00,SummerDesignDay
8,14404245.357476916
2737,1067568.2626090539
2,1, 8,21, 0,20,30.00,40.00,SummerDesignDay
8,15559429.703202311
2737,1067568.2626090539
2,1, 8,21, 0,20,40.00,50.00,SummerDesignDay
8,14295424.435799086
2737,1067568.2626090539
2,1, 8,21, 0,20,50.00,60.00,SummerDesignDay
8,14162036.794841621
2737,1067568.2626090539
2,1, 8,21, 0,21, 0.00,10.00,SummerDesignDay
8,14153314.616822183
2737,208094.72186117098
2,1, 8,21, 0,21,10.00,20.00,SummerDesignDay
8,14095554.13291741
2737,0.0
2,1, 8,21, 0,21,20.00,30.00,SummerDesignDay
8,13995738.254316304
2737,859957.4375737336
2,1, 8,21, 0,21,30.00,40.00,SummerDesignDay
8,14335496.14717386
2737,1067568.2626090539
2,1, 8,21, 0,21,40.00,50.00,SummerDesignDay
8,14196837.463437552
2737,1067568.2626090539
2,1, 8,21, 0,21,50.00,60.00,SummerDesignDay
8,14079010.169117572
2737,1067568.2626090539
2,1, 8,21, 0,22, 0.00,10.00,SummerDesignDay
8,13975974.937013252
2737,1067568.2626090539
2,1, 8,21, 0,22,10.00,20.00,SummerDesignDay
8,13884819.758418184
2737,766336.8842652248
2,1, 8,21, 0,22,20.00,30.00,SummerDesignDay
8,13803438.555339968
2737,0.0
2,1, 8,21, 0,22,30.00,40.00,SummerDesignDay
8,13730032.212048199
2737,55289.62159340895
2,1, 8,21, 0,22,40.00,50.00,SummerDesignDay
8,13663383.170836622
2737,1067568.2626090539
2,1, 8,21, 0,22,50.00,60.00,SummerDesignDay
8,13602130.495977376
2737,1067568.2626090539
2,1, 8,21, 0,23, 0.00,10.00,SummerDesignDay
8,11369872.330186183
2737,1067568.2626090539
2,1, 8,21, 0,23,10.00,20.00,SummerDesignDay
8,11369872.330186183
2737,1067568.2626090539
2,1, 8,21, 0,23,20.00,30.00,SummerDesignDay
8,11369872.330186183
2737,391262.1040986764
2,1, 8,21, 0,23,30.00,40.00,SummerDesignDay
8,11369872.330186183
2737,0.0
2,1, 8,21, 0,23,40.00,50.00,SummerDesignDay
8,11369872.330186183
2737,335515.1977554229
2,1, 8,21, 0,23,50.00,60.00,SummerDesignDay
8,11369872.330186183
2737,1067568.2626090539
2,1, 8,21, 0,24, 0.00,10.00,SummerDesignDay
8,11369872.330186183
2737,1067568.2626090539
2,1, 8,21, 0,24,10.00,20.00,SummerDesignDay
8,11369872.330186183
2737,1067568.2626090539
2,1, 8,21, 0,24,20.00,30.00,SummerDesignDay
8,11369872.330186183
2737,1005512.408996589
2,1, 8,21, 0,24,30.00,40.00,SummerDesignDay
8,11369872.330186183
2737,0.0
2,1, 8,21, 0,24,40.00,50.00,SummerDesignDay
8,11369872.330186183
2737,0.0
2,1, 8,21, 0,24,50.00,60.00,SummerDesignDay
8,11369872.330186183
2737,788852.9964432721
1,KODIAK ANN CLG .4% CONDNS WB=>MDB HVAC Sizing Pass 1,  57.75,-152.49,  -9.00,  34.00
2,1, 8,21, 0, 1, 0.00,10.00,SummerDesignDay
8,11183780.678427452
2737,0.0
2,1, 8,21, 0, 1,10.00,20.00,SummerDesignDay
8,11183780.678427452
2737,0.0
2,1, 8,21, 0, 1,20.00,30.00,SummerDesignDay
8,11183780.678427452
2737,0.0
2,1, 8,21, 0, 1,30.00,40.00,SummerDesignDay
8,11183780.678427452
2737,0.0
2,1, 8,21, 0, 1,40.00,50.00,SummerDesignDay
8,11183780.678427452
2737,0.0
2,1, 8,21, 0, 1,50.00,60.00,SummerDesignDay
8,11183780.678427452
2737,0.0
2,1, 8,21, 0, 2, 0.00,10.00,SummerDesignDay
8,11183780.678427452
2737,0.0
2,1, 8,21, 0, 2,10.00,20.00,SummerDesignDay
8,11183780.678427452
2737,0.0
2,1, 8,21, 0, 2,20.00,30.00,SummerDesignDay
8,11183780.678427452
2737,0.0
2,1, 8,21, 0, 2,30.00,40.00,SummerDesignDay
8,11183780.678427452
2737,682591.4963424796
2,1, 8,21, 0, 2,40.00,50.00,SummerDesignDay
8,11183780.678427452
2737,1067568.2626090539
2,1, 8,21, 0, 2,50.00,60.00,SummerDesignDay
8,11183780.678427452
2737,152692.35844283472
2,1, 8,21, 0, 3, 0.00,10.00,SummerDesignDay
8,11183780.678427452
2737,0.0
2,1, 8,21, 0, 3,10.00,20.00,SummerDesignDay
8,11183780.678427452
2737,0.0
2,1, 8,21, 0, 3,20.00,30.00,SummerDesignDay
8,11183780.678427452
2737,0.0
2,1, 8,21, 0, 3,30.00,40.00,SummerDesignDay
8,11183780.678427452
2737,0.0
2,1, 8,21, 0, 3,40.00,50.00,SummerDesignDay
8,11183780.678427452
2737,0.0
2,1, 8,21, 0, 3,50.00,60.00,SummerDesignDay
8,11183780.678427452
2737,0.0
2,1, 8,21, 0, 4, 0.00,10.00,SummerDesignDay
8,11183780.678427452
2737,0.0
2,1, 8,21, 0, 4,10.00,20.00,SummerDesignDay
8,11183780.678427452
2737,0.0
2,1, 8,21, 0, 4,20.00,30.00,SummerDesignDay
8,11183780.678427452
2737,529831.9362016015
2,1, 8,21, 0, 4,30.00,40.00,SummerDesignDay
8,11183780.678427452
2737,1067568.2626090539
2,1, 8,21, 0, 4,40.00,50.00,SummerDesignDay
8,11183780.678427452
2737,305425.143887398
2,1, 8,21, 0, 4,50.00,60.00,SummerDesignDay
8,11183780.678427452
2737,0.0
2,1, 8,21, 0, 5, 0.00,10.00,SummerDesignDay
8,11183780.678427452
2737,0.0
2,1, 8,21, 0, 5,10.00,20.00,SummerDesignDay
8,11183780.678427452
2737,0.0
2,1, 8,21, 0, 5,20.00,30.00,SummerDesignDay
8,11183780.678427452
2737,0.0
2,1, 8,21, 0, 5,30.00,40.00,SummerDesignDay
8,11183780.678427452
2737,0.0
2,1, 8,21, 0, 5,40.00,50.00,SummerDesignDay
8,11183780.678427452
2737,0.0
2,1, 8,21, 0, 5,50.00,60.00,SummerDesignDay
8,12438497.100773672
2737,0.0
2,1, 8,21, 0, 6, 0.00,10.00,SummerDesignDay
8,11703332.583948793
2737,0.0
2,1, 8,21, 0, 6,10.00,20.00,SummerDesignDay
8,11183780.678427452
2737,377025.1684890134
2,1, 8,21, 0, 6,20.00,30.00,SummerDesignDay
8,11184959.821341945
2737,1067568.2626090539
2,1, 8,21, 0, 6,30.00,40.00,SummerDesignDay
8,11333142.245475845
2737,458229.13697788876
2,1, 8,21, 0, 6,40.00,50.00,SummerDesignDay
8,11324267.66140742
2737,0.0
2,1, 8,21, 0, 6,50.00,60.00,SummerDesignDay
8,10865424.331280781
2737,0.0
2,1, 8,21, 0, 7, 0.00,10.00,SummerDesignDay
8,11716225.753591288
2737,13383.899629679181
2,1, 8,21, 0, 7,10.00,20.00,SummerDesignDay
8,10817303.041799126
2737,1067568.2626090539
2,1, 8,21, 0, 7,20.00,30.00,SummerDesignDay
8,11383574.16639187
2737,1067568.2626090539
2,1, 8,21, 0, 7,30.00,40.00,SummerDesignDay
8,11318932.58958776
2737,1067568.2626090539
2,1, 8,21, 0, 7,40.00,50.00,SummerDesignDay
8,11281435.876685806
2737,1067568.2626090539
2,1, 8,21, 0, 7,50.00,60.00,SummerDesignDay
8,11393277.767540088
2737,1067568.2626090539
2,1, 8,21, 0, 8, 0.00,10.00,SummerDesignDay
8,14019690.894984545
2737,1067568.2626090539
2,1, 8,21, 0, 8,10.00,20.00,SummerDesignDay
8,13149676.26977251
2737,1067568.2626090539
2,1, 8,21, 0, 8,20.00,30.00,SummerDesignDay
8,13389127.095260303
2737,1067568.2626090539
2,1, 8,21, 0, 8,30.00,40.00,SummerDesignDay
8,13071482.648574973
2737,632768.0545350836
2,1, 8,21, 0, 8,40.00,50.00,SummerDesignDay
8,13152049.566142099
2737,0.0
2,1, 8,21, 0, 8,50.00,60.00,SummerDesignDay
8,13184298.764489643
2737,483793.822750015
2,1, 8,21, 0, 9, 0.00,10.00,SummerDesignDay
8,13246693.543215528
2737,1067568.2626090539
2,1, 8,21, 0, 9,10.00,20.00,SummerDesignDay
8,13339115.258588264
2737,1067568.2626090539
2,1, 8,21, 0, 9,20.00,30.00,SummerDesignDay
8,13433553.920833359
2737,1067568.2626090539
2,1, 8,21, 0, 9,30.00,40.00,SummerDesignDay
8,13515321.459284691
2737,1067568.2626090539
2,1, 8,21, 0, 9,40.00,50.00,SummerDesignDay
8,13634382.783464506
2737,1067568.2626090539
2,1, 8,21, 0, 9,50.00,60.00,SummerDesignDay
8,13706635.002439748
2737,1067568.2626090539
2,1, 8,21, 0,10, 0.00,10.00,SummerDesignDay
8,13821024.806447424
2737,1067568.2626090539
2,1, 8,21, 0,10,10.00,20.00,SummerDesignDay
8,13934055.336644396
2737,1067568.2626090539
2,1, 8,21, 0,10,20.00,30.00,SummerDesignDay
8,14051269.304766744
2737,1067568.2626090539
2,1, 8,21, 0,10,30.00,40.00,SummerDesignDay
8,14153075.075556954
2737,1067568.2626090539
2,1, 8,21, 0,10,40.00,50.00,SummerDesignDay
8,15526331.563150221
2737,1067568.2626090539
2,1, 8,21, 0,10,50.00,60.00,SummerDesignDay
8,14388909.499627452
2737,1067568.2626090539
2,1, 8,21, 0,11, 0.00,10.00,SummerDesignDay
8,14499842.477460217
2737,1067568.2626090539
2,1, 8,21, 0,11,10.00,20.00,SummerDesignDay
8,14590570.845699636
2737,1067568.2626090539
2,1, 8,21, 0,11,20.00,30.00,SummerDesignDay
8,14694055.131906765
2737,1067568.2626090539
2,1, 8,21, 0,11,30.00,40.00,SummerDesignDay
8,14787275.144734029
2737,1067568.2626090539
2,1, 8,21, 0,11,40.00,50.00,SummerDesignDay
8,14879917.753377065
2737,1067568.2626090539
2,1, 8,21, 0,11,50.00,60.00,SummerDesignDay
8,14967996.834923128
2737,1067568.2626090539
2,1, 8,21, 0,12, 0.00,10.00,SummerDesignDay
8,15036898.141117528
2737,1067568.2626090539
2,1, 8,21, 0,12,10.00,20.00,SummerDesignDay
8,15099643.602358865
2737,1067568.2626090539
2,1, 8,21, 0,12,20.00,30.00,SummerDesignDay
8,15155739.550925318
2737,1067568.2626090539
2,1, 8,21, 0,12,30.00,40.00,SummerDesignDay
8,15205033.806345271
2737,1067568.2626090539
2,1, 8,21, 0,12,40.00,50.00,SummerDesignDay
8,15247531.964596944
2737,1067568.2626090539
2,1, 8,21, 0,12,50.00,60.00,SummerDesignDay
8,15283411.001586637
2737,1067568.2626090539
2,1, 8,21, 0,13, 0.00,10.00,SummerDesignDay
8,15307673.195555234
2737,1067568.2626090539
2,1, 8,21, 0,13,10.00,20.00,SummerDesignDay
8,15326584.021150101
2737,1067568.2626090539
2,1, 8,21, 0,13,20.00,30.00,SummerDesignDay
8,15341189.509132214
2737,1067568.2626090539
2,1, 8,21, 0,13,30.00,40.00,SummerDesignDay
8,15353647.028458765
2737,1067568.2626090539
2,1, 8,21, 0,13,40.00,50.00,SummerDesignDay
8,15365155.063688021
2737,1067568.2626090539
2,1, 8,21, 0,13,50.00,60.00,SummerDesignDay
8,15378341.670686806
2737,1067568.2626090539
2,1, 8,21, 0,14, 0.00,10.00,SummerDesignDay
8,15386908.67203679
2737,1067568.2626090539
2,1, 8,21, 0,14,10.00,20.00,SummerDesignDay
8,15402417.688214047
2737,1067568.2626090539
2,1, 8,21, 0,14,20.00,30.00,SummerDesignDay
8,15426146.793818261
2737,1067568.2626090539
2,1, 8,21, 0,14,30.00,40.00,SummerDesignDay
8,15458336.422879789
2737,1067568.2626090539
2,1, 8,21, 0,14,40.00,50.00,SummerDesignDay
8,15498014.452677054
2737,1067568.2626090539
2,1, 8,21, 0,14,50.00,60.00,SummerDesignDay
8,15542769.516329953
2737,1067568.2626090539
2,1, 8,21, 0,15, 0.00,10.00,SummerDesignDay
8,15577201.401044127
2737,1067568.2626090539
2,1, 8,21, 0,15,10.00,20.00,SummerDesignDay
8,15612891.815243639
2737,1067568.2626090539
2,1, 8,21, 0,15,20.00,30.00,SummerDesignDay
8,15648560.698766915
2737,1067568.2626090539
2,1, 8,21, 0,15,30.00,40.00,SummerDesignDay
8,16937589.900066078
2737,1067568.2626090539
2,1, 8,21, 0,15,40.00,50.00,SummerDesignDay
8,15714822.982327214
2737,1067568.2626090539
2,1, 8,21, 0,15,50.00,60.00,SummerDesignDay
8,15743374.247040212
2737,1067568.2626090539
2,1, 8,21, 0,16, 0.00,10.00,SummerDesignDay
8,15750840.019372163
2737,1067568.2626090539
2,1, 8,21, 0,16,10.00,20.00,SummerDesignDay
8,15753229.981767835
2737,1067568.2626090539
2,1, 8,21, 0,16,20.00,30.00,SummerDesignDay
8,15750536.088576028
2737,1067568.2626090539
2,1, 8,21, 0,16,30.00,40.00,SummerDesignDay
8,15741660.744052824
2737,1067568.2626090539
2,1, 8,21, 0,16,40.00,50.00,SummerDesignDay
8,15733352.60329092
2737,1067568.2626090539
2,1, 8,21, 0,16,50.00,60.00,SummerDesignDay
8,15713264.518644376
2737,1067568.2626090539
2,1, 8,21, 0,17, 0.00,10.00,SummerDesignDay
8,15680095.900419842
2737,1067568.2626090539
2,1, 8,21, 0,17,10.00,20.00,SummerDesignDay
8,15656227.095797269
2737,1067568.2626090539
2,1, 8,21, 0,17,20.00,30.00,SummerDesignDay
8,15608331.738566658
2737,1067568.2626090539
2,1, 8,21, 0,17,30.00,40.00,SummerDesignDay
8,15552681.22812645
2737,1067568.2626090539
2,1, 8,21, 0,17,40.00,50.00,SummerDesignDay
8,15506142.912338156
2737,1067568.2626090539
2,1, 8,21, 0,17,50.00,60.00,SummerDesignDay
8,15435926.062348915
2737,1067568.2626090539
2,1, 8,21, 0,18, 0.00,10.00,SummerDesignDay
8,15353187.725190122
2737,1067568.2626090539
2,1, 8,21, 0,18,10.00,20.00,SummerDesignDay
8,15263895.566998066
2737,61769.420671074025
2,1, 8,21, 0,18,20.00,30.00,SummerDesignDay
8,15169211.958181512
2737,130648.63363369257
2,1, 8,21, 0,18,30.00,40.00,SummerDesignDay
8,15086223.904608434
2737,1067568.2626090539
2,1, 8,21, 0,18,40.00,50.00,SummerDesignDay
8,14996284.980798537
2737,1067568.2626090539
2,1, 8,21, 0,18,50.00,60.00,SummerDesignDay
8,14890433.561608428
2737,1067568.2626090539
2,1, 8,21, 0,19, 0.00,10.00,SummerDesignDay
8,14775425.732809981
2737,1067568.2626090539
2,1, 8,21, 0,19,10.00,20.00,SummerDesignDay
8,14664190.180940278
2737,1067568.2626090539
2,1, 8,21, 0,19,20.00,30.00,SummerDesignDay
8,14571389.989781199
2737,1067568.2626090539
2,1, 8,21, 0,19,30.00,40.00,SummerDesignDay
8,14482420.550698426
2737,1067568.2626090539
2,1, 8,21, 0,19,40.00,50.00,SummerDesignDay
8,14384859.363434512
2737,604219.6291865769
2,1, 8,21, 0,19,50.00,60.00,SummerDesignDay
8,14293037.911621358
2737,0.0
2,1, 8,21, 0,20, 0.00,10.00,SummerDesignDay
8,14284037.378611367
2737,524396.0080829094
2,1, 8,21, 0,20,10.00,20.00,SummerDesignDay
8,14202904.319408383
2737,1067568.2626090539
2,1, 8,21, 0,20,20.00,30.00,SummerDesignDay
8,14116677.44720724
2737,1067568.2626090539
2,1, 8,21, 0,20,30.00,40.00,SummerDesignDay
8,15273981.020235624
2737,1067568.2626090539
2,1, 8,21, 0,20,40.00,50.00,SummerDesignDay
8,14011439.585243199
2737,1067568.2626090539
2,1, 8,21, 0,20,50.00,60.00,SummerDesignDay
8,13878704.092280138
2737,1067568.2626090539
2,1, 8,21, 0,21, 0.00,10.00,SummerDesignDay
8,13834459.495179541
2737,208752.41847275928
2,1, 8,21, 0,21,10.00,20.00,SummerDesignDay
8,13812042.92981486
2737,0.0
2,1, 8,21, 0,21,20.00,30.00,SummerDesignDay
8,13710680.105438575
2737,859301.4950051208
2,1, 8,21, 0,21,30.00,40.00,SummerDesignDay
8,14046218.354085896
2737,1067568.2626090539
2,1, 8,21, 0,21,40.00,50.00,SummerDesignDay
8,13907956.918098798
2737,1067568.2626090539
2,1, 8,21, 0,21,50.00,60.00,SummerDesignDay
8,13790249.174096901
2737,1067568.2626090539
2,1, 8,21, 0,22, 0.00,10.00,SummerDesignDay
8,13687472.863784317
2737,1067568.2626090539
2,1, 8,21, 0,22,10.00,20.00,SummerDesignDay
8,13596405.27571453
2737,766830.3246259118
2,1, 8,21, 0,22,20.00,30.00,SummerDesignDay
8,13515171.047540441
2737,0.0
2,1, 8,21, 0,22,30.00,40.00,SummerDesignDay
8,13441859.077095013
2737,54796.67638427964
2,1, 8,21, 0,22,40.00,50.00,SummerDesignDay
8,13375348.023854641
2737,1067568.2626090539
2,1, 8,21, 0,22,50.00,60.00,SummerDesignDay
8,13314056.230687851
2737,1067568.2626090539
2,1, 8,21, 0,23, 0.00,10.00,SummerDesignDay
8,11369872.330186183
2737,1067568.2626090539
2,1, 8,21, 0,23,10.00,20.00,SummerDesignDay
8,11369872.330186183
2737,1067568.2626090539
2,1, 8,21, 0,23,20.00,30.00,SummerDesignDay
8,11369872.330186183
2737,390635.8431915047
2,1, 8,21, 0,23,30.00,40.00,SummerDesignDay
8,11369872.330186183
2737,0.0
2,1, 8,21, 0,23,40.00,50.00,SummerDesignDay
8,11369872.330186183
2737,336205.2493900773
2,1, 8,21, 0,23,50.00,60.00,SummerDesignDay
8,11369872.330186183
2737,1067568.2626090539
2,1, 8,21, 0,24, 0.00,10.00,SummerDesignDay
8,11369872.330186183
2737,1067568.2626090539
2,1, 8,21, 0,24,10.00,20.00,SummerDesignDay
8,11369872.330186183
2737,1067568.2626090539
2,1, 8,21, 0,24,20.00,30.00,SummerDesignDay
8,11369872.330186183
2737,1005731.8009931311
2,1, 8,21, 0,24,30.00,40.00,SummerDesignDay
8,11369872.330186183
2737,0.0
2,1, 8,21, 0,24,40.00,50.00,SummerDesignDay
8,11369872.330186183
2737,0.0
2,1, 8,21, 0,24,50.00,60.00,SummerDesignDay
8,11369872.330186183
2737,788655.4050288154
1,KODIAK ANN HTG 99.6% CONDNS DB HVAC Sizing Pass 1,  57.75,-152.49,  -9.00,  34.00
2,1, 1,21, 0, 1, 0.00,10.00,WinterDesignDay
8,3495665.0567395804
2737,21482394.589061126
2,1, 1,21, 0, 1,10.00,20.00,WinterDesignDay
8,3495665.056739581
2737,22124916.6212364
2,1, 1,21, 0, 1,20.00,30.00,WinterDesignDay
8,3495665.056739581
2737,22651002.2964904
2,1, 1,21, 0, 1,30.00,40.00,WinterDesignDay
8,3495665.056739581
2737,23118961.449294016
2,1, 1,21, 0, 1,40.00,50.00,WinterDesignDay
8,3495665.0567395804
2737,23524321.107851576
2,1, 1,21, 0, 1,50.00,60.00,WinterDesignDay
8,3495665.056739581
2737,23912143.748813167
2,1, 1,21, 0, 2, 0.00,10.00,WinterDesignDay
8,3495665.056739581
2737,24267138.99638755
2,1, 1,21, 0, 2,10.00,20.00,WinterDesignDay
8,3495665.0567395804
2737,24591888.063010797
2,1, 1,21, 0, 2,20.00,30.00,WinterDesignDay
8,3495665.056739581
2737,24888535.44590312
2,1, 1,21, 0, 2,30.00,40.00,WinterDesignDay
8,3495665.056739581
2737,25840819.990003094
2,1, 1,21, 0, 2,40.00,50.00,WinterDesignDay
8,3495665.0567395804
2737,26471917.090627033
2,1, 1,21, 0, 2,50.00,60.00,WinterDesignDay
8,3495665.056739581
2737,25878379.034766417
2,1, 1,21, 0, 3, 0.00,10.00,WinterDesignDay
8,3495665.056739581
2737,25937921.921879403
2,1, 1,21, 0, 3,10.00,20.00,WinterDesignDay
8,3495665.056739581
2737,26153263.556946028
2,1, 1,21, 0, 3,20.00,30.00,WinterDesignDay
8,3495665.056739581
2737,26355117.77977503
2,1, 1,21, 0, 3,30.00,40.00,WinterDesignDay
8,3495665.056739581
2737,26538539.333049916
2,1, 1,21, 0, 3,40.00,50.00,WinterDesignDay
8,3495665.056739581
2737,26707265.349991
2,1, 1,21, 0, 3,50.00,60.00,WinterDesignDay
8,3495665.056739581
2737,26865776.87928207
2,1, 1,21, 0, 4, 0.00,10.00,WinterDesignDay
8,3495665.056739581
2737,27016649.721031133
2,1, 1,21, 0, 4,10.00,20.00,WinterDesignDay
8,3495665.056739581
2737,27159136.646912113
2,1, 1,21, 0, 4,20.00,30.00,WinterDesignDay
8,3495665.056739581
2737,27824636.038650136
2,1, 1,21, 0, 4,30.00,40.00,WinterDesignDay
8,3495665.056739581
2737,28492403.71033737
2,1, 1,21, 0, 4,40.00,50.00,WinterDesignDay
8,3495665.056739581
2737,27855243.6377726
2,1, 1,21, 0, 4,50.00,60.00,WinterDesignDay
8,3495665.0567395804
2737,27670072.184658553
2,1, 1,21, 0, 5, 0.00,10.00,WinterDesignDay
8,3495665.056739581
2737,27785978.401017208
2,1, 1,21, 0, 5,10.00,20.00,WinterDesignDay
8,3495665.056739581
2737,27897892.005179547
2,1, 1,21, 0, 5,20.00,30.00,WinterDesignDay
8,3495665.056739581
2737,28006132.300924867
2,1, 1,21, 0, 5,30.00,40.00,WinterDesignDay
8,3495665.056739581
2737,28110981.990578283
2,1, 1,21, 0, 5,40.00,50.00,WinterDesignDay
8,3495665.056739581
2737,28212688.923655484
2,1, 1,21, 0, 5,50.00,60.00,WinterDesignDay
8,4750381.479085799
2737,28311468.818270747
2,1, 1,21, 0, 6, 0.00,10.00,WinterDesignDay
8,3495665.0567395804
2737,59409204.000083424
2,1, 1,21, 0, 6,10.00,20.00,WinterDesignDay
8,3495665.056739581
2737,46461386.724234246
2,1, 1,21, 0, 6,20.00,30.00,WinterDesignDay
8,3495665.0567395804
2737,46937311.906404264
2,1, 1,21, 0, 6,30.00,40.00,WinterDesignDay
8,3495665.056739581
2737,43068300.89115396
2,1, 1,21, 0, 6,40.00,50.00,WinterDesignDay
8,3495665.056739581
2737,40890043.426227495
2,1, 1,21, 0, 6,50.00,60.00,WinterDesignDay
8,3495665.056739581
2737,40085004.91095641
2,1, 1,21, 0, 7, 0.00,10.00,WinterDesignDay
8,3681756.7084983103
2737,71857289.35092337
2,1, 1,21, 0, 7,10.00,20.00,WinterDesignDay
8,3681756.7084983108
2737,64242494.43475677
2,1, 1,21, 0, 7,20.00,30.00,WinterDesignDay
8,3681756.7084983108
2737,58523505.16149504
2,1, 1,21, 0, 7,30.00,40.00,WinterDesignDay
8,3681756.7084983108
2737,54538935.34606902
2,1, 1,21, 0, 7,40.00,50.00,WinterDesignDay
8,3681756.7084983108
2737,52495096.128456295
2,1, 1,21, 0, 7,50.00,60.00,WinterDesignDay
8,3681756.7084983108
2737,51120560.35033178
2,1, 1,21, 0, 8, 0.00,10.00,WinterDesignDay
8,3681756.7084983108
2737,74129497.30233571
2,1, 1,21, 0, 8,10.00,20.00,WinterDesignDay
8,3681756.7084983108
2737,63854791.44763472
2,1, 1,21, 0, 8,20.00,30.00,WinterDesignDay
8,3681756.7084983108
2737,62983162.02451253
2,1, 1,21, 0, 8,30.00,40.00,WinterDesignDay
8,3681756.7084983108
2737,58086339.84984232
2,1, 1,21, 0, 8,40.00,50.00,WinterDesignDay
8,3681756.7084983108
2737,56339263.81498413
2,1, 1,21, 0, 8,50.00,60.00,WinterDesignDay
8,3681756.7084983108
2737,55942646.03534797
2,1, 1,21, 0, 9, 0.00,10.00,WinterDesignDay
8,3681756.7084983108
2737,55178090.32362837
2,1, 1,21, 0, 9,10.00,20.00,WinterDesignDay
8,3681756.7084983108
2737,54373781.79088845
2,1, 1,21, 0, 9,20.00,30.00,WinterDesignDay