Program Version,EnergyPlus, Version 22.2.0-aa78da9668, YMD=2023.04.25 21:09
1,5,Environment Title[],Latitude[deg],Longitude[deg],Time Zone[],Elevation[m]
2,8,Day of Simulation[],Month[],Day of Month[],DST Indicator[1=yes 0=no],Hour[],StartMinute[],EndMinute[],DayType
3,5,Cumulative Day of Simulation[],Month[],Day of Month[],DST Indicator[1=yes 0=no],DayType  ! When Daily Report Variables Requested
4,2,Cumulative Days of Simulation[],Month[]  ! When Monthly Report Variables Requested
5,1,Cumulative Days of Simulation[] ! When Run Period Report Variables Requested
6,1,Calendar Year of Simulation[] ! When Annual Report Variables Requested
8,1,Electricity:Facility [J] !TimeStep
2018,1,DistrictHeating:Facility [J] !TimeStep
End of Data Dictionary
1,KODIAK ANN CLG .4% CONDNS DB=>MWB HVAC Sizing Pass 1,  57.75,-152.49,  -9.00,  34.00
2,1, 8,21, 0, 1, 0.00,10.00,SummerDesignDay
8,4618570.613655656
2018,0.0
2,1, 8,21, 0, 1,10.00,20.00,SummerDesignDay
8,4618570.613655656
2018,0.0
2,1, 8,21, 0, 1,20.00,30.00,SummerDesignDay
8,4618570.613655656
2018,0.0
2,1, 8,21, 0, 1,30.00,40.00,SummerDesignDay
8,4618570.613655656
2018,0.0
2,1, 8,21, 0, 1,40.00,50.00,SummerDesignDay
8,4618570.613655656
2018,0.0
2,1, 8,21, 0, 1,50.00,60.00,SummerDesignDay
8,4618570.613655656
2018,0.0
2,1, 8,21, 0, 2, 0.00,10.00,SummerDesignDay
8,4618570.613655656
2018,0.0
2,1, 8,21, 0, 2,10.00,20.00,SummerDesignDay
8,4618570.613655656
2018,0.0
2,1, 8,21, 0, 2,20.00,30.00,SummerDesignDay
8,4618570.613655656
2018,0.0
2,1, 8,21, 0, 2,30.00,40.00,SummerDesignDay
8,4618570.613655656
2018,0.0
2,1, 8,21, 0, 2,40.00,50.00,SummerDesignDay
8,4618570.613655656
2018,0.0
2,1, 8,21, 0, 2,50.00,60.00,SummerDesignDay
8,4618570.613655656
2018,0.0
2,1, 8,21, 0, 3, 0.00,10.00,SummerDesignDay
8,4618570.613655656
2018,0.0
2,1, 8,21, 0, 3,10.00,20.00,SummerDesignDay
8,4618570.613655656
2018,0.0
2,1, 8,21, 0, 3,20.00,30.00,SummerDesignDay
8,4618570.613655656
2018,0.0
2,1, 8,21, 0, 3,30.00,40.00,SummerDesignDay
8,4618570.613655656
2018,0.0
2,1, 8,21, 0, 3,40.00,50.00,SummerDesignDay
8,4618570.613655656
2018,0.0
2,1, 8,21, 0, 3,50.00,60.00,SummerDesignDay
8,4618570.613655656
2018,0.0
2,1, 8,21, 0, 4, 0.00,10.00,SummerDesignDay
8,4618570.613655656
2018,0.0
2,1, 8,21, 0, 4,10.00,20.00,SummerDesignDay
8,4618570.613655656
2018,0.0
2,1, 8,21, 0, 4,20.00,30.00,SummerDesignDay
8,4618570.613655656
2018,0.0
2,1, 8,21, 0, 4,30.00,40.00,SummerDesignDay
8,4618570.613655656
2018,0.0
2,1, 8,21, 0, 4,40.00,50.00,SummerDesignDay
8,4618570.613655656
2018,0.0
2,1, 8,21, 0, 4,50.00,60.00,SummerDesignDay
8,4618570.613655656
2018,0.0
2,1, 8,21, 0, 5, 0.00,10.00,SummerDesignDay
8,4618570.613655656
2018,0.0
2,1, 8,21, 0, 5,10.00,20.00,SummerDesignDay
8,4618570.613655656
2018,0.0
2,1, 8,21, 0, 5,20.00,30.00,SummerDesignDay
8,4618570.613655656
2018,0.0
2,1, 8,21, 0, 5,30.00,40.00,SummerDesignDay
8,4618570.613655656
2018,0.0
2,1, 8,21, 0, 5,40.00,50.00,SummerDesignDay
8,4618570.613655656
2018,0.0
2,1, 8,21, 0, 5,50.00,60.00,SummerDesignDay
8,5873287.040320992
2018,0.0
2,1, 8,21, 0, 6, 0.00,10.00,SummerDesignDay
8,4618570.613655656
2018,0.0
2,1, 8,21, 0, 6,10.00,20.00,SummerDesignDay
8,4618570.613655656
2018,0.0
2,1, 8,21, 0, 6,20.00,30.00,SummerDesignDay
8,4618570.613655656
2018,0.0
2,1, 8,21, 0, 6,30.00,40.00,SummerDesignDay
8,4618570.613655656
2018,0.0
2,1, 8,21, 0, 6,40.00,50.00,SummerDesignDay
8,4618570.613655656
2018,0.0
2,1, 8,21, 0, 6,50.00,60.00,SummerDesignDay
8,4256824.613655655
2018,0.0
2,1, 8,21, 0, 7, 0.00,10.00,SummerDesignDay
8,4445187.2881257385
2018,0.0
2,1, 8,21, 0, 7,10.00,20.00,SummerDesignDay
8,4371127.178272932
2018,0.0
2,1, 8,21, 0, 7,20.00,30.00,SummerDesignDay
8,4364340.017450718
2018,0.0
2,1, 8,21, 0, 7,30.00,40.00,SummerDesignDay
8,4357091.604387071
2018,0.0
2,1, 8,21, 0, 7,40.00,50.00,SummerDesignDay
8,4348478.198258177
2018,0.0
2,1, 8,21, 0, 7,50.00,60.00,SummerDesignDay
8,4345630.947662586
2018,0.0
2,1, 8,21, 0, 8, 0.00,10.00,SummerDesignDay
8,4344003.032296189
2018,0.0
2,1, 8,21, 0, 8,10.00,20.00,SummerDesignDay
8,4342858.0066356715
2018,0.0
2,1, 8,21, 0, 8,20.00,30.00,SummerDesignDay
8,4342062.3195377365
2018,0.0
2,1, 8,21, 0, 8,30.00,40.00,SummerDesignDay
8,4341736.043562985
2018,0.0
2,1, 8,21, 0, 8,40.00,50.00,SummerDesignDay
8,4341614.82800267
2018,0.0
2,1, 8,21, 0, 8,50.00,60.00,SummerDesignDay
8,4341752.96874805
2018,0.0
2,1, 8,21, 0, 9, 0.00,10.00,SummerDesignDay
8,5060960.24049108
2018,0.0
2,1, 8,21, 0, 9,10.00,20.00,SummerDesignDay
8,5062152.17085343
2018,0.0
2,1, 8,21, 0, 9,20.00,30.00,SummerDesignDay
8,5066447.129029255
2018,0.0
2,1, 8,21, 0, 9,30.00,40.00,SummerDesignDay
8,5069401.56671809
2018,0.0
2,1, 8,21, 0, 9,40.00,50.00,SummerDesignDay
8,5072511.898162127
2018,0.0
2,1, 8,21, 0, 9,50.00,60.00,SummerDesignDay
8,5076103.515209529
2018,0.0
2,1, 8,21, 0,10, 0.00,10.00,SummerDesignDay
8,5079692.071949261
2018,0.0
2,1, 8,21, 0,10,10.00,20.00,SummerDesignDay
8,5083430.380674193
2018,0.0
2,1, 8,21, 0,10,20.00,30.00,SummerDesignDay
8,5073135.83988006
2018,0.0
2,1, 8,21, 0,10,30.00,40.00,SummerDesignDay
8,5102275.6137480065
2018,0.0
2,1, 8,21, 0,10,40.00,50.00,SummerDesignDay
8,6346932.473950189
2018,0.0
2,1, 8,21, 0,10,50.00,60.00,SummerDesignDay
8,5101021.087033776
2018,0.0
2,1, 8,21, 0,11, 0.00,10.00,SummerDesignDay
8,5105332.05644487
2018,0.0
2,1, 8,21, 0,11,10.00,20.00,SummerDesignDay
8,5110136.027156811
2018,0.0
2,1, 8,21, 0,11,20.00,30.00,SummerDesignDay
8,5115163.721412857
2018,0.0
2,1, 8,21, 0,11,30.00,40.00,SummerDesignDay
8,5120309.178670306
2018,0.0
2,1, 8,21, 0,11,40.00,50.00,SummerDesignDay
8,5129380.716007491
2018,0.0
2,1, 8,21, 0,11,50.00,60.00,SummerDesignDay
8,5136122.226117397
2018,0.0
2,1, 8,21, 0,12, 0.00,10.00,SummerDesignDay
8,5142846.2090445915
2018,0.0
2,1, 8,21, 0,12,10.00,20.00,SummerDesignDay
8,5149475.381623615
2018,0.0
2,1, 8,21, 0,12,20.00,30.00,SummerDesignDay
8,5155990.871547739
2018,0.0
2,1, 8,21, 0,12,30.00,40.00,SummerDesignDay
8,5162391.634044003
2018,0.0
2,1, 8,21, 0,12,40.00,50.00,SummerDesignDay
8,5168666.789414541
2018,0.0
2,1, 8,21, 0,12,50.00,60.00,SummerDesignDay
8,5174739.982298054
2018,0.0
2,1, 8,21, 0,13, 0.00,10.00,SummerDesignDay
8,4453640.668081769
2018,0.0
2,1, 8,21, 0,13,10.00,20.00,SummerDesignDay
8,4458183.133180852
2018,0.0
2,1, 8,21, 0,13,20.00,30.00,SummerDesignDay
8,4462921.2454653485
2018,0.0
2,1, 8,21, 0,13,30.00,40.00,SummerDesignDay
8,4467620.570063686
2018,0.0
2,1, 8,21, 0,13,40.00,50.00,SummerDesignDay
8,4457480.937381492
2018,0.0
2,1, 8,21, 0,13,50.00,60.00,SummerDesignDay
8,4487997.561414706
2018,0.0
2,1, 8,21, 0,14, 0.00,10.00,SummerDesignDay
8,5204381.27570166
2018,0.0
2,1, 8,21, 0,14,10.00,20.00,SummerDesignDay
8,5213683.435499393
2018,0.0
2,1, 8,21, 0,14,20.00,30.00,SummerDesignDay
8,5217985.967904694
2018,0.0
2,1, 8,21, 0,14,30.00,40.00,SummerDesignDay
8,5222434.38494437
2018,0.0
2,1, 8,21, 0,14,40.00,50.00,SummerDesignDay
8,5226795.150056255
2018,0.0
2,1, 8,21, 0,14,50.00,60.00,SummerDesignDay
8,5231173.886863358
2018,0.0
2,1, 8,21, 0,15, 0.00,10.00,SummerDesignDay
8,5234694.388599056
2018,0.0
2,1, 8,21, 0,15,10.00,20.00,SummerDesignDay
8,5238064.339254201
2018,0.0
2,1, 8,21, 0,15,20.00,30.00,SummerDesignDay
8,5241264.503904071
2018,0.0
2,1, 8,21, 0,15,30.00,40.00,SummerDesignDay
8,6498959.8922755085
2018,0.0
2,1, 8,21, 0,15,40.00,50.00,SummerDesignDay
8,5247085.915006591
2018,0.0
2,1, 8,21, 0,15,50.00,60.00,SummerDesignDay
8,5249680.622697659
2018,0.0
2,1, 8,21, 0,16, 0.00,10.00,SummerDesignDay
8,5251147.249649139
2018,0.0
2,1, 8,21, 0,16,10.00,20.00,SummerDesignDay
8,5257452.0043016095
2018,0.0
2,1, 8,21, 0,16,20.00,30.00,SummerDesignDay
8,5256420.235508698
2018,0.0
2,1, 8,21, 0,16,30.00,40.00,SummerDesignDay
8,5258180.046224616
2018,0.0
2,1, 8,21, 0,16,40.00,50.00,SummerDesignDay
8,5258986.39147987
2018,0.0
2,1, 8,21, 0,16,50.00,60.00,SummerDesignDay
8,5259254.98194083
2018,0.0
2,1, 8,21, 0,17, 0.00,10.00,SummerDesignDay
8,5258703.852816232
2018,0.0
2,1, 8,21, 0,17,10.00,20.00,SummerDesignDay
8,5257713.177381258
2018,0.0
2,1, 8,21, 0,17,20.00,30.00,SummerDesignDay
8,5256283.801488514
2018,0.0
2,1, 8,21, 0,17,30.00,40.00,SummerDesignDay
8,5254415.0663603805
2018,0.0
2,1, 8,21, 0,17,40.00,50.00,SummerDesignDay
8,5252112.30719413
2018,0.0
2,1, 8,21, 0,17,50.00,60.00,SummerDesignDay
8,5249387.802450998
2018,0.0
2,1, 8,21, 0,18, 0.00,10.00,SummerDesignDay
8,4258435.599852338
2018,0.0
2,1, 8,21, 0,18,10.00,20.00,SummerDesignDay
8,4257599.554484022
2018,0.0
2,1, 8,21, 0,18,20.00,30.00,SummerDesignDay
8,4257279.498691826
2018,0.0
2,1, 8,21, 0,18,30.00,40.00,SummerDesignDay
8,4257324.454068673
2018,0.0
2,1, 8,21, 0,18,40.00,50.00,SummerDesignDay
8,4257406.106476658
2018,0.0
2,1, 8,21, 0,18,50.00,60.00,SummerDesignDay
8,4257406.004132315
2018,0.0
2,1, 8,21, 0,19, 0.00,10.00,SummerDesignDay
8,4257173.244232384
2018,0.0
2,1, 8,21, 0,19,10.00,20.00,SummerDesignDay
8,4256824.613655655
2018,0.0
2,1, 8,21, 0,19,20.00,30.00,SummerDesignDay
8,4256824.613655655
2018,0.0
2,1, 8,21, 0,19,30.00,40.00,SummerDesignDay
8,4256824.613655655
2018,0.0
2,1, 8,21, 0,19,40.00,50.00,SummerDesignDay
8,4256824.613655655
2018,0.0
2,1, 8,21, 0,19,50.00,60.00,SummerDesignDay
8,4256824.613655655
2018,0.0
2,1, 8,21, 0,20, 0.00,10.00,SummerDesignDay
8,4256824.613655655
2018,0.0
2,1, 8,21, 0,20,10.00,20.00,SummerDesignDay
8,4256824.613655655
2018,0.0
2,1, 8,21, 0,20,20.00,30.00,SummerDesignDay
8,4256824.613655655
2018,0.0
2,1, 8,21, 0,20,30.00,40.00,SummerDesignDay
8,5511541.251859736
2018,0.0
2,1, 8,21, 0,20,40.00,50.00,SummerDesignDay
8,4256824.613655655
2018,0.0
2,1, 8,21, 0,20,50.00,60.00,SummerDesignDay
8,4256824.613655655
2018,0.0
2,1, 8,21, 0,21, 0.00,10.00,SummerDesignDay
8,4256824.613655655
2018,0.0
2,1, 8,21, 0,21,10.00,20.00,SummerDesignDay
8,4256824.613655655
2018,0.0
2,1, 8,21, 0,21,20.00,30.00,SummerDesignDay
8,4256824.613655655
2018,0.0
2,1, 8,21, 0,21,30.00,40.00,SummerDesignDay
8,4804024.613655656
2018,0.0
2,1, 8,21, 0,21,40.00,50.00,SummerDesignDay
8,4804024.613655656
2018,0.0
2,1, 8,21, 0,21,50.00,60.00,SummerDesignDay
8,4804024.613655656
2018,0.0
2,1, 8,21, 0,22, 0.00,10.00,SummerDesignDay
8,4804024.613655656
2018,0.0
2,1, 8,21, 0,22,10.00,20.00,SummerDesignDay
8,4804024.613655656
2018,0.0
2,1, 8,21, 0,22,20.00,30.00,SummerDesignDay
8,4804024.613655656
2018,0.0
2,1, 8,21, 0,22,30.00,40.00,SummerDesignDay
8,4804024.613655656
2018,0.0
2,1, 8,21, 0,22,40.00,50.00,SummerDesignDay
8,4804024.613655656
2018,0.0
2,1, 8,21, 0,22,50.00,60.00,SummerDesignDay
8,4804024.613655656
2018,0.0
2,1, 8,21, 0,23, 0.00,10.00,SummerDesignDay
8,4804024.613655656
2018,0.0
2,1, 8,21, 0,23,10.00,20.00,SummerDesignDay
8,4804024.613655656
2018,0.0
2,1, 8,21, 0,23,20.00,30.00,SummerDesignDay
8,4804024.613655656
2018,0.0
2,1, 8,21, 0,23,30.00,40.00,SummerDesignDay
8,4804024.613655656
2018,0.0
2,1, 8,21, 0,23,40.00,50.00,SummerDesignDay
8,4804024.613655656
2018,0.0
2,1, 8,21, 0,23,50.00,60.00,SummerDesignDay
8,4804024.613655656
2018,0.0
2,1, 8,21, 0,24, 0.00,10.00,SummerDesignDay
8,4804024.613655656
2018,0.0
2,1, 8,21, 0,24,10.00,20.00,SummerDesignDay
8,4804024.613655656
2018,0.0
2,1, 8,21, 0,24,20.00,30.00,SummerDesignDay
8,4804024.613655656
2018,0.0
2,1, 8,21, 0,24,30.00,40.00,SummerDesignDay
8,4804024.613655656
2018,0.0
2,1, 8,21, 0,24,40.00,50.00,SummerDesignDay
8,4804024.613655656
2018,0.0
2,1, 8,21, 0,24,50.00,60.00,SummerDesignDay
8,4804024.613655656
2018,0.0
1,KODIAK ANN CLG .4% CONDNS WB=>MDB HVAC Sizing Pass 1,  57.75,-152.49,  -9.00,  34.00
2,1, 8,21, 0, 1, 0.00,10.00,SummerDesignDay
8,4618570.613655656
2018,0.0
2,1, 8,21, 0, 1,10.00,20.00,SummerDesignDay
8,4618570.613655656
2018,0.0
2,1, 8,21, 0, 1,20.00,30.00,SummerDesignDay
8,4618570.613655656
2018,0.0
2,1, 8,21, 0, 1,30.00,40.00,SummerDesignDay
8,4618570.613655656
2018,0.0
2,1, 8,21, 0, 1,40.00,50.00,SummerDesignDay
8,4618570.613655656
2018,0.0
2,1, 8,21, 0, 1,50.00,60.00,SummerDesignDay
8,4618570.613655656
2018,0.0
2,1, 8,21, 0, 2, 0.00,10.00,SummerDesignDay
8,4618570.613655656
2018,0.0
2,1, 8,21, 0, 2,10.00,20.00,SummerDesignDay
8,4618570.613655656
2018,0.0
2,1, 8,21, 0, 2,20.00,30.00,SummerDesignDay
8,4618570.613655656
2018,0.0
2,1, 8,21, 0, 2,30.00,40.00,SummerDesignDay
8,4618570.613655656
2018,0.0
2,1, 8,21, 0, 2,40.00,50.00,SummerDesignDay
8,4618570.613655656
2018,0.0
2,1, 8,21, 0, 2,50.00,60.00,SummerDesignDay
8,4618570.613655656
2018,0.0
2,1, 8,21, 0, 3, 0.00,10.00,SummerDesignDay
8,4618570.613655656
2018,0.0
2,1, 8,21, 0, 3,10.00,20.00,SummerDesignDay
8,4618570.613655656
2018,0.0
2,1, 8,21, 0, 3,20.00,30.00,SummerDesignDay
8,4618570.613655656
2018,0.0
2,1, 8,21, 0, 3,30.00,40.00,SummerDesignDay
8,4618570.613655656
2018,0.0
2,1, 8,21, 0, 3,40.00,50.00,SummerDesignDay
8,4618570.613655656
2018,0.0
2,1, 8,21, 0, 3,50.00,60.00,SummerDesignDay
8,4618570.613655656
2018,0.0
2,1, 8,21, 0, 4, 0.00,10.00,SummerDesignDay
8,4618570.613655656
2018,0.0
2,1, 8,21, 0, 4,10.00,20.00,SummerDesignDay
8,4618570.613655656
2018,0.0
2,1, 8,21, 0, 4,20.00,30.00,SummerDesignDay
8,4618570.613655656
2018,0.0
2,1, 8,21, 0, 4,30.00,40.00,SummerDesignDay
8,4618570.613655656
2018,0.0
2,1, 8,21, 0, 4,40.00,50.00,SummerDesignDay
8,4618570.613655656
2018,0.0
2,1, 8,21, 0, 4,50.00,60.00,SummerDesignDay
8,4618570.613655656
2018,0.0
2,1, 8,21, 0, 5, 0.00,10.00,SummerDesignDay
8,4618570.613655656
2018,0.0
2,1, 8,21, 0, 5,10.00,20.00,SummerDesignDay
8,4618570.613655656
2018,0.0
2,1, 8,21, 0, 5,20.00,30.00,SummerDesignDay
8,4618570.613655656
2018,0.0
2,1, 8,21, 0, 5,30.00,40.00,SummerDesignDay
8,4618570.613655656
2018,0.0
2,1, 8,21, 0, 5,40.00,50.00,SummerDesignDay
8,4618570.613655656
2018,0.0
2,1, 8,21, 0, 5,50.00,60.00,SummerDesignDay
8,5873287.040320992
2018,0.0
2,1, 8,21, 0, 6, 0.00,10.00,SummerDesignDay
8,4618570.613655656
2018,0.0
2,1, 8,21, 0, 6,10.00,20.00,SummerDesignDay
8,4618570.613655656
2018,0.0
2,1, 8,21, 0, 6,20.00,30.00,SummerDesignDay
8,4618570.613655656
2018,0.0
2,1, 8,21, 0, 6,30.00,40.00,SummerDesignDay
8,4618570.613655656
2018,0.0
2,1, 8,21, 0, 6,40.00,50.00,SummerDesignDay
8,4618570.613655656
2018,0.0
2,1, 8,21, 0, 6,50.00,60.00,SummerDesignDay
8,4256824.613655655
2018,0.0
2,1, 8,21, 0, 7, 0.00,10.00,SummerDesignDay
8,4356635.158993564
2018,0.0
2,1, 8,21, 0, 7,10.00,20.00,SummerDesignDay
8,4256824.613655655
2018,0.0
2,1, 8,21, 0, 7,20.00,30.00,SummerDesignDay
8,4307435.5968297105
2018,0.0
2,1, 8,21, 0, 7,30.00,40.00,SummerDesignDay
8,4311180.372111034
2018,0.0
2,1, 8,21, 0, 7,40.00,50.00,SummerDesignDay
8,4301610.639304732
2018,0.0
2,1, 8,21, 0, 7,50.00,60.00,SummerDesignDay
8,4301740.695020641
2018,0.0
2,1, 8,21, 0, 8, 0.00,10.00,SummerDesignDay
8,4301474.0126262875
2018,0.0
2,1, 8,21, 0, 8,10.00,20.00,SummerDesignDay
8,4301284.827843321
2018,0.0
2,1, 8,21, 0, 8,20.00,30.00,SummerDesignDay
8,4301264.864766435
2018,0.0
2,1, 8,21, 0, 8,30.00,40.00,SummerDesignDay
8,4301401.799743583
2018,0.0
2,1, 8,21, 0, 8,40.00,50.00,SummerDesignDay
8,4301661.4242902305
2018,0.0
2,1, 8,21, 0, 8,50.00,60.00,SummerDesignDay
8,4301986.527548877
2018,0.0
2,1, 8,21, 0, 9, 0.00,10.00,SummerDesignDay
8,5021860.96120845
2018,0.0
2,1, 8,21, 0, 9,10.00,20.00,SummerDesignDay
8,5023002.880339861
2018,0.0
2,1, 8,21, 0, 9,20.00,30.00,SummerDesignDay
8,5024135.245289519
2018,0.0
2,1, 8,21, 0, 9,30.00,40.00,SummerDesignDay
8,5025347.668543892
2018,0.0
2,1, 8,21, 0, 9,40.00,50.00,SummerDesignDay
8,5026646.830896232
2018,0.0
2,1, 8,21, 0, 9,50.00,60.00,SummerDesignDay
8,5028027.226689015
2018,0.0
2,1, 8,21, 0,10, 0.00,10.00,SummerDesignDay
8,5029431.789026174
2018,0.0
2,1, 8,21, 0,10,10.00,20.00,SummerDesignDay
8,5030896.393583788
2018,0.0
2,1, 8,21, 0,10,20.00,30.00,SummerDesignDay
8,5032411.021933855
2018,0.0
2,1, 8,21, 0,10,30.00,40.00,SummerDesignDay
8,5033962.697470873
2018,0.0
2,1, 8,21, 0,10,40.00,50.00,SummerDesignDay
8,6290236.612586305
2018,0.0
2,1, 8,21, 0,10,50.00,60.00,SummerDesignDay
8,5037073.101528506
2018,0.0
2,1, 8,21, 0,11, 0.00,10.00,SummerDesignDay
8,5038582.762273146
2018,0.0
2,1, 8,21, 0,11,10.00,20.00,SummerDesignDay
8,5040735.366189118
2018,0.0
2,1, 8,21, 0,11,20.00,30.00,SummerDesignDay
8,5049030.720356577
2018,0.0
2,1, 8,21, 0,11,30.00,40.00,SummerDesignDay
8,5052315.643959579
2018,0.0
2,1, 8,21, 0,11,40.00,50.00,SummerDesignDay
8,5056886.175274312
2018,0.0
2,1, 8,21, 0,11,50.00,60.00,SummerDesignDay
8,5061554.536707685
2018,0.0
2,1, 8,21, 0,12, 0.00,10.00,SummerDesignDay
8,5050003.738023434
2018,0.0
2,1, 8,21, 0,12,10.00,20.00,SummerDesignDay
8,5082352.09002368
2018,0.0
2,1, 8,21, 0,12,20.00,30.00,SummerDesignDay
8,5054190.632683251
2018,0.0
2,1, 8,21, 0,12,30.00,40.00,SummerDesignDay
8,5091937.176438035
2018,0.0
2,1, 8,21, 0,12,40.00,50.00,SummerDesignDay
8,5080312.403815022
2018,0.0
2,1, 8,21, 0,12,50.00,60.00,SummerDesignDay
8,5089523.630006675
2018,0.0
2,1, 8,21, 0,13, 0.00,10.00,SummerDesignDay
8,4369685.847010349
2018,0.0
2,1, 8,21, 0,13,10.00,20.00,SummerDesignDay
8,4373075.587715201
2018,0.0
2,1, 8,21, 0,13,20.00,30.00,SummerDesignDay
8,4376725.295410686
2018,0.0
2,1, 8,21, 0,13,30.00,40.00,SummerDesignDay
8,4380362.591158553
2018,0.0
2,1, 8,21, 0,13,40.00,50.00,SummerDesignDay
8,4383862.694092059
2018,0.0
2,1, 8,21, 0,13,50.00,60.00,SummerDesignDay
8,4387395.299245308
2018,0.0
2,1, 8,21, 0,14, 0.00,10.00,SummerDesignDay
8,5114311.757647084
2018,0.0
2,1, 8,21, 0,14,10.00,20.00,SummerDesignDay
8,5118324.086972266
2018,0.0
2,1, 8,21, 0,14,20.00,30.00,SummerDesignDay
8,5122060.936186629
2018,0.0
2,1, 8,21, 0,14,30.00,40.00,SummerDesignDay
8,5125710.305484102
2018,0.0
2,1, 8,21, 0,14,40.00,50.00,SummerDesignDay
8,5129271.09692067
2018,0.0
2,1, 8,21, 0,14,50.00,60.00,SummerDesignDay
8,5132984.377267854
2018,0.0
2,1, 8,21, 0,15, 0.00,10.00,SummerDesignDay
8,5138802.723318678
2018,0.0
2,1, 8,21, 0,15,10.00,20.00,SummerDesignDay
8,5142109.079656662
2018,0.0
2,1, 8,21, 0,15,20.00,30.00,SummerDesignDay
8,5145899.362170771
2018,0.0
2,1, 8,21, 0,15,30.00,40.00,SummerDesignDay
8,6403987.492536938
2018,0.0
2,1, 8,21, 0,15,40.00,50.00,SummerDesignDay
8,5152400.438363845
2018,0.0
2,1, 8,21, 0,15,50.00,60.00,SummerDesignDay
8,5155209.798465282
2018,0.0
2,1, 8,21, 0,16, 0.00,10.00,SummerDesignDay
8,5156947.352265244
2018,0.0
2,1, 8,21, 0,16,10.00,20.00,SummerDesignDay
8,5158400.15732916
2018,0.0
2,1, 8,21, 0,16,20.00,30.00,SummerDesignDay
8,5159569.913350582
2018,0.0
2,1, 8,21, 0,16,30.00,40.00,SummerDesignDay
8,5160452.158356944
2018,0.0
2,1, 8,21, 0,16,40.00,50.00,SummerDesignDay
8,5161081.894796574
2018,0.0
2,1, 8,21, 0,16,50.00,60.00,SummerDesignDay
8,5161394.770623784
2018,0.0
2,1, 8,21, 0,17, 0.00,10.00,SummerDesignDay
8,5161139.548167416
2018,0.0
2,1, 8,21, 0,17,10.00,20.00,SummerDesignDay
8,5160583.712108477
2018,0.0
2,1, 8,21, 0,17,20.00,30.00,SummerDesignDay
8,5159723.961590411
2018,0.0
2,1, 8,21, 0,17,30.00,40.00,SummerDesignDay
8,5158557.441084404
2018,0.0
2,1, 8,21, 0,17,40.00,50.00,SummerDesignDay
8,5157087.799486104
2018,0.0
2,1, 8,21, 0,17,50.00,60.00,SummerDesignDay
8,5155324.0710124485
2018,0.0
2,1, 8,21, 0,18, 0.00,10.00,SummerDesignDay
8,4256824.613655655
2018,0.0
2,1, 8,21, 0,18,10.00,20.00,SummerDesignDay
8,4256824.613655655
2018,0.0
2,1, 8,21, 0,18,20.00,30.00,SummerDesignDay
8,4256824.613655655
2018,0.0
2,1, 8,21, 0,18,30.00,40.00,SummerDesignDay
8,4256824.613655655
2018,0.0
2,1, 8,21, 0,18,40.00,50.00,SummerDesignDay
8,4256824.613655655
2018,0.0
2,1, 8,21, 0,18,50.00,60.00,SummerDesignDay
8,4256824.613655655
2018,0.0
2,1, 8,21, 0,19, 0.00,10.00,SummerDesignDay
8,4256824.613655655
2018,0.0
2,1, 8,21, 0,19,10.00,20.00,SummerDesignDay
8,4256824.613655655
2018,0.0
2,1, 8,21, 0,19,20.00,30.00,SummerDesignDay
8,4256824.613655655
2018,0.0
2,1, 8,21, 0,19,30.00,40.00,SummerDesignDay
8,4256824.613655655
2018,0.0
2,1, 8,21, 0,19,40.00,50.00,SummerDesignDay
8,4256824.613655655
2018,0.0
2,1, 8,21, 0,19,50.00,60.00,SummerDesignDay
8,4256824.613655655
2018,0.0
2,1, 8,21, 0,20, 0.00,10.00,SummerDesignDay
8,4256824.613655655
2018,0.0
2,1, 8,21, 0,20,10.00,20.00,SummerDesignDay
8,4256824.613655655
2018,0.0
2,1, 8,21, 0,20,20.00,30.00,SummerDesignDay
8,4256824.613655655
2018,0.0
2,1, 8,21, 0,20,30.00,40.00,SummerDesignDay
8,5511541.2517633205
2018,0.0
2,1, 8,21, 0,20,40.00,50.00,SummerDesignDay
8,4256824.613655655
2018,0.0
2,1, 8,21, 0,20,50.00,60.00,SummerDesignDay
8,4256824.613655655
2018,0.0
2,1, 8,21, 0,21, 0.00,10.00,SummerDesignDay
8,4256824.613655655
2018,0.0
2,1, 8,21, 0,21,10.00,20.00,SummerDesignDay
8,4256824.613655655
2018,0.0
2,1, 8,21, 0,21,20.00,30.00,SummerDesignDay
8,4256824.613655655
2018,0.0
2,1, 8,21, 0,21,30.00,40.00,SummerDesignDay
8,4804024.613655656
2018,0.0
2,1, 8,21, 0,21,40.00,50.00,SummerDesignDay
8,4804024.613655656
2018,0.0
2,1, 8,21, 0,21,50.00,60.00,SummerDesignDay
8,4804024.613655656
2018,0.0
2,1, 8,21, 0,22, 0.00,10.00,SummerDesignDay
8,4804024.613655656
2018,0.0
2,1, 8,21, 0,22,10.00,20.00,SummerDesignDay
8,4804024.613655656
2018,0.0
2,1, 8,21, 0,22,20.00,30.00,SummerDesignDay
8,4804024.613655656
2018,0.0
2,1, 8,21, 0,22,30.00,40.00,SummerDesignDay
8,4804024.613655656
2018,0.0
2,1, 8,21, 0,22,40.00,50.00,SummerDesignDay
8,4804024.613655656
2018,0.0
2,1, 8,21, 0,22,50.00,60.00,SummerDesignDay
8,4804024.613655656
2018,0.0
2,1, 8,21, 0,23, 0.00,10.00,SummerDesignDay
8,4804024.613655656
2018,0.0
2,1, 8,21, 0,23,10.00,20.00,SummerDesignDay
8,4804024.613655656
2018,0.0
2,1, 8,21, 0,23,20.00,30.00,SummerDesignDay
8,4804024.613655656
2018,0.0
2,1, 8,21, 0,23,30.00,40.00,SummerDesignDay
8,4804024.613655656
2018,0.0
2,1, 8,21, 0,23,40.00,50.00,SummerDesignDay
8,4804024.613655656
2018,0.0
2,1, 8,21, 0,23,50.00,60.00,SummerDesignDay
8,4804024.613655656
2018,0.0
2,1, 8,21, 0,24, 0.00,10.00,SummerDesignDay
8,4804024.613655656
2018,0.0
2,1, 8,21, 0,24,10.00,20.00,SummerDesignDay
8,4804024.613655656
2018,0.0
2,1, 8,21, 0,24,20.00,30.00,SummerDesignDay
8,4804024.613655656
2018,0.0
2,1, 8,21, 0,24,30.00,40.00,SummerDesignDay
8,4804024.613655656
2018,0.0
2,1, 8,21, 0,24,40.00,50.00,SummerDesignDay
8,4804024.613655656
2018,0.0
2,1, 8,21, 0,24,50.00,60.00,SummerDesignDay
8,4804024.613655656
2018,0.0
1,KODIAK ANN HTG 99.6% CONDNS DB HVAC Sizing Pass 1,  57.75,-152.49,  -9.00,  34.00
2,1, 1,21, 0, 1, 0.00,10.00,WinterDesignDay
8,1694810.431865383
2018,28157041.965506636
2,1, 1,21, 0, 1,10.00,20.00,WinterDesignDay
8,1694899.5002618763
2018,28181151.797152076
2,1, 1,21, 0, 1,20.00,30.00,WinterDesignDay
8,1694933.1950553278
2018,28184398.61250126
2,1, 1,21, 0, 1,30.00,40.00,WinterDesignDay
8,1694933.609665615
2018,28183204.096888375
2,1, 1,21, 0, 1,40.00,50.00,WinterDesignDay
8,1694990.4346008697
2018,28197837.66519187
2,1, 1,21, 0, 1,50.00,60.00,WinterDesignDay
8,1695065.9582907197
2018,28212744.30646215
2,1, 1,21, 0, 2, 0.00,10.00,WinterDesignDay
8,1695066.1915803344
2018,28208562.357940543
2,1, 1,21, 0, 2,10.00,20.00,WinterDesignDay
8,1695093.7606588376
2018,28215926.78356552
2,1, 1,21, 0, 2,20.00,30.00,WinterDesignDay
8,1695120.7594134698
2018,28221406.487451885
2,1, 1,21, 0, 2,30.00,40.00,WinterDesignDay
8,1695192.2822671982
2018,28237334.10315086
2,1, 1,21, 0, 2,40.00,50.00,WinterDesignDay
8,1695191.0754167428
2018,28232966.349888485
2,1, 1,21, 0, 2,50.00,60.00,WinterDesignDay
8,1695240.1317999463
2018,28245314.157723848
2,1, 1,21, 0, 3, 0.00,10.00,WinterDesignDay
8,1695216.6740287398
2018,28237356.269267976
2,1, 1,21, 0, 3,10.00,20.00,WinterDesignDay
8,1695264.3392603823
2018,28251050.503132533
2,1, 1,21, 0, 3,20.00,30.00,WinterDesignDay
8,1695319.4306591656
2018,28261702.761129938
2,1, 1,21, 0, 3,30.00,40.00,WinterDesignDay
8,1695269.9798280047
2018,28247068.893060446
2,1, 1,21, 0, 3,40.00,50.00,WinterDesignDay
8,1695385.625716192
2018,28278374.92051603
2,1, 1,21, 0, 3,50.00,60.00,WinterDesignDay
8,1695310.601866657
2018,28253779.10400405
2,1, 1,21, 0, 4, 0.00,10.00,WinterDesignDay
8,1695407.9571335788
2018,28282413.896586895
2,1, 1,21, 0, 4,10.00,20.00,WinterDesignDay
8,1695419.0583013974
2018,28279313.360646468
2,1, 1,21, 0, 4,20.00,30.00,WinterDesignDay
8,1695399.0211118525
2018,28274395.19168713
2,1, 1,21, 0, 4,30.00,40.00,WinterDesignDay
8,1695501.0656926879
2018,28300313.975862112
2,1, 1,21, 0, 4,40.00,50.00,WinterDesignDay
8,1695426.2242531634
2018,28276787.682806317
2,1, 1,21, 0, 4,50.00,60.00,WinterDesignDay
8,1695504.0668407346
2018,28300720.936918724
2,1, 1,21, 0, 5, 0.00,10.00,WinterDesignDay
8,1695557.728322386
2018,28308757.16667835
2,1, 1,21, 0, 5,10.00,20.00,WinterDesignDay
8,1695492.9198765028
2018,28290622.18247312
2,1, 1,21, 0, 5,20.00,30.00,WinterDesignDay
8,1695603.235679187
2018,28321404.261985093
2,1, 1,21, 0, 5,30.00,40.00,WinterDesignDay
8,1695562.7222874858
2018,28305210.24497598
2,1, 1,21, 0, 5,40.00,50.00,WinterDesignDay
8,1695658.9601519965
2018,28330809.499351703
2,1, 1,21, 0, 5,50.00,60.00,WinterDesignDay
8,2950320.4586146306
2018,28312149.108454563
2,1, 1,21, 0, 6, 0.00,10.00,WinterDesignDay
8,1695678.4333690668
2018,28333764.04043737
2,1, 1,21, 0, 6,10.00,20.00,WinterDesignDay
8,1695688.1502994816
2018,28331745.196594626
2,1, 1,21, 0, 6,20.00,30.00,WinterDesignDay
8,1695697.6509650399
2018,28333829.838905998
2,1, 1,21, 0, 6,30.00,40.00,WinterDesignDay
8,1695707.0544075577
2018,28336093.18673488
2,1, 1,21, 0, 6,40.00,50.00,WinterDesignDay
8,1695716.3679162904
2018,28338387.22475708
2,1, 1,21, 0, 6,50.00,60.00,WinterDesignDay
8,1695743.503491745
2018,28344817.15507349
2,1, 1,21, 0, 7, 0.00,10.00,WinterDesignDay
8,2750083.5275990698
2018,30028966.714444004
2,1, 1,21, 0, 7,10.00,20.00,WinterDesignDay
8,1883654.4374180227
2018,29026726.529797904
2,1, 1,21, 0, 7,20.00,30.00,WinterDesignDay
8,1887498.7772864203
2018,30317553.480285767
2,1, 1,21, 0, 7,30.00,40.00,WinterDesignDay
8,1885561.6900273673
2018,29666632.70561235
2,1, 1,21, 0, 7,40.00,50.00,WinterDesignDay
8,1885022.896421335
2018,29606736.413836088
2,1, 1,21, 0, 7,50.00,60.00,WinterDesignDay
8,1884533.810864861
2018,29504628.184343275
2,1, 1,21, 0, 8, 0.00,10.00,WinterDesignDay
8,2865688.9054427478
2018,31600869.48251094
2,1, 1,21, 0, 8,10.00,20.00,WinterDesignDay
8,1889264.6351829635
2018,30099156.369601045
2,1, 1,21, 0, 8,20.00,30.00,WinterDesignDay
8,1894957.6027769514
2018,31585617.07529523
2,1, 1,21, 0, 8,30.00,40.00,WinterDesignDay
8,1891673.6414466095
2018,30582102.685465265
2,1, 1,21, 0, 8,40.00,50.00,WinterDesignDay
8,1890462.1807023473
2018,30500762.5723444
2,1, 1,21, 0, 8,50.00,60.00,WinterDesignDay
8,1889559.1710592103
2018,30371466.782107856
2,1, 1,21, 0, 9, 0.00,10.00,WinterDesignDay
8,2803008.1614486496
2018,31486397.147680998
2,1, 1,21, 0, 9,10.00,20.00,WinterDesignDay
8,2598564.9590344816
2018,30078348.37250621
2,1, 1,21, 0, 9,20.00,30.00,WinterDesignDay
8,2601123.327083831
2018,30889085.80870062
2,1, 1,21, 0, 9,30.00,40.00,WinterDesignDay
8,2598932.239262172
2018,30281144.344430976
2,1, 1,21, 0, 9,40.00,50.00,WinterDesignDay
8,2598048.908708244
2018,30222666.306906924
2,1, 1,21, 0, 9,50.00,60.00,WinterDesignDay
8,2597223.7748661987
2018,30094502.374424532
2,1, 1,21, 0,10, 0.00,10.00,WinterDesignDay
8,2596622.527324475
2018,30009841.64328066
2,1, 1,21, 0,10,10.00,20.00,WinterDesignDay
8,2596010.1017817413
2018,29904824.94619546
2,1, 1,21, 0,10,20.00,30.00,WinterDesignDay
8,2595645.648027747
2018,29857398.07424809
2,1, 1,21, 0,10,30.00,40.00,WinterDesignDay
8,2595197.6265750155
2018,29775716.50768424
2,1, 1,21, 0,10,40.00,50.00,WinterDesignDay
8,3302379.4144401005
2018,29725606.557437904
2,1, 1,21, 0,10,50.00,60.00,WinterDesignDay
8,2047387.0457404896
2018,29676421.09198006
2,1, 1,21, 0,11, 0.00,10.00,WinterDesignDay
8,2047081.672743403
2018,29620646.7689165
2,1, 1,21, 0,11,10.00,20.00,WinterDesignDay
8,2046961.2562287378
2018,29612011.23967745
2,1, 1,21, 0,11,20.00,30.00,WinterDesignDay
8,2046651.7039226128
2018,29544438.9801163
2,1, 1,21, 0,11,30.00,40.00,WinterDesignDay
8,2046500.0266472723
2018,29527956.067788016
2,1, 1,21, 0,11,40.00,50.00,WinterDesignDay
8,2046375.496018993
2018,29510358.75392879
2,1, 1,21, 0,11,50.00,60.00,WinterDesignDay
8,2046231.3773940662
2018,29483392.133172017
2,1, 1,21, 0,12, 0.00,10.00,WinterDesignDay
8,2046057.4352905536
2018,29448576.65710981
2,1, 1,21, 0,12,10.00,20.00,WinterDesignDay
8,2045992.2629988657
2018,29444370.651831686
2,1, 1,21, 0,12,20.00,30.00,WinterDesignDay
8,2045874.8801708953
2018,29421610.009979844
2,1, 1,21, 0,12,30.00,40.00,WinterDesignDay
8,2045789.2689757962
2018,29406930.68080021
2,1, 1,21, 0,12,40.00,50.00,WinterDesignDay
8,2045660.7713631068
2018,29381338.081735834
2,1, 1,21, 0,12,50.00,60.00,WinterDesignDay
8,2045655.0209455532
2018,29388679.16451136
2,1, 1,21, 0,13, 0.00,10.00,WinterDesignDay
8,1338303.966140277
2018,29673102.70376231
2,1, 1,21, 0,13,10.00,20.00,WinterDesignDay
8,1338377.845814427
2018,29626050.75045709
2,1, 1,21, 0,13,20.00,30.00,WinterDesignDay
8,1338431.4260725696
2018,29633053.375711415
2,1, 1,21, 0,13,30.00,40.00,WinterDesignDay
8,1338406.8015684648
2018,29623897.39737558
2,1, 1,21, 0,13,40.00,50.00,WinterDesignDay
8,1338489.5310505345
2018,29645300.41495726
2,1, 1,21, 0,13,50.00,60.00,WinterDesignDay
8,1338433.6022420188
2018,29627529.79234196
2,1, 1,21, 0,14, 0.00,10.00,WinterDesignDay
8,2045676.1917058062
2018,29321753.779681094
2,1, 1,21, 0,14,10.00,20.00,WinterDesignDay
8,2045559.52670697
2018,29365317.761587847
2,1, 1,21, 0,14,20.00,30.00,WinterDesignDay
8,2045492.0048571131
2018,29358346.894524444
2,1, 1,21, 0,14,30.00,40.00,WinterDesignDay
8,2045429.7981040278
2018,29346806.76770951
2,1, 1,21, 0,14,40.00,50.00,WinterDesignDay
8,2045323.536121292
2018,29325095.918735154
2,1, 1,21, 0,14,50.00,60.00,WinterDesignDay
8,2045314.8171236224
2018,29328902.164509207
2,1, 1,21, 0,15, 0.00,10.00,WinterDesignDay
8,2045230.3226415224
2018,29309351.673878375
2,1, 1,21, 0,15,10.00,20.00,WinterDesignDay
8,2045229.1132787268
2018,29314266.74180423
2,1, 1,21, 0,15,20.00,30.00,WinterDesignDay
8,2045105.131924296
2018,29282353.291813266
2,1, 1,21, 0,15,30.00,40.00,WinterDesignDay
8,3299790.300621289
2018,29288798.888859857
2,1, 1,21, 0,15,40.00,50.00,WinterDesignDay
8,2045054.4164652703
2018,29278475.657763023
2,1, 1,21, 0,15,50.00,60.00,WinterDesignDay
8,2045020.7464179224
2018,29273024.806556016