Program Version,EnergyPlus, Version 22.2.0-aa78da9668, YMD=2023.06.21 18:14
1,5,Environment Title[],Latitude[deg],Longitude[deg],Time Zone[],Elevation[m]
2,8,Day of Simulation[],Month[],Day of Month[],DST Indicator[1=yes 0=no],Hour[],StartMinute[],EndMinute[],DayType
3,5,Cumulative Day of Simulation[],Month[],Day of Month[],DST Indicator[1=yes 0=no],DayType  ! When Daily Report Variables Requested
4,2,Cumulative Days of Simulation[],Month[]  ! When Monthly Report Variables Requested
5,1,Cumulative Days of Simulation[] ! When Run Period Report Variables Requested
6,1,Calendar Year of Simulation[] ! When Annual Report Variables Requested
202,1,ZONE OFFICE WHOLEBUILDING - SM OFFICE 2  - STORY GROUND,Zone Mean Air Temperature [C] !Hourly
203,1,ZONE OFFICE WHOLEBUILDING - SM OFFICE 2  - STORY GROUND,Zone Operative Temperature [C] !Hourly
534,1,OFFICE WHOLEBUILDING - SM OFFICE 2  - STORY GROUND OFFICE WHOLEBUILDING - SM OFFICE 2 PEOPLE,Zone Thermal Comfort Fanger Model PMV [] !Hourly
535,1,OFFICE WHOLEBUILDING - SM OFFICE 2  - STORY GROUND OFFICE WHOLEBUILDING - SM OFFICE 2 PEOPLE,Zone Thermal Comfort Fanger Model PPD [%] !Hourly
8,1,Electricity:Facility [J] !TimeStep
600,1,NaturalGas:Facility [J] !TimeStep
End of Data Dictionary
1,RUN PERIOD 1,  57.75,-152.50,  -9.00,   5.00
2,1, 1, 1, 0, 1, 0.00,60.00,Sunday
8,38298146.7703647
600,8469337.684852198
2,1, 1, 1, 0, 1, 0.00,60.00,Sunday
202,15.600000001521424
203,15.930699104152591
534,-1.7611797947811907
535,64.9976029950337
2,1, 1, 1, 0, 2, 0.00,60.00,Sunday
8,38347086.04624046
600,10919195.994988136
2,1, 1, 1, 0, 2, 0.00,60.00,Sunday
202,15.600000000080234
203,15.858186322605746
534,-1.7876206602444982
535,66.37878200131237
2,1, 1, 1, 0, 3, 0.00,60.00,Sunday
8,38347442.46423363
600,11592927.882565219
2,1, 1, 1, 0, 3, 0.00,60.00,Sunday
202,15.600000000004421
203,15.804032343152338
534,-1.8044173514391746
535,67.24816385087726
2,1, 1, 1, 0, 4, 0.00,60.00,Sunday
8,39516465.086368404
600,8195780.620680823
2,1, 1, 1, 0, 4, 0.00,60.00,Sunday
202,15.60000000000019
203,15.805799959866476
534,-1.7954504199455432
535,66.78485711355368
2,1, 1, 1, 0, 5, 0.00,60.00,Sunday
8,38234602.90739255
600,7328796.928216135
2,1, 1, 1, 0, 5, 0.00,60.00,Sunday
202,15.600000000000021
203,15.786328957687093
534,-1.7861405160187662
535,66.30186153260667
2,1, 1, 1, 0, 6, 0.00,60.00,Sunday
8,38227299.96081499
600,7052823.489192676
2,1, 1, 1, 0, 6, 0.00,60.00,Sunday
202,15.600000000000016
203,15.762661729776006
534,-1.7810646665658914
535,66.03771031002518
2,1, 1, 1, 0, 7, 0.00,60.00,Sunday
8,40436652.79086067
600,33159442.981924254
2,1, 1, 1, 0, 7, 0.00,60.00,Sunday
202,20.828401758182554
203,18.344117089790448
534,-1.082354703143813
535,29.712602278865162
2,1, 1, 1, 0, 8, 0.00,60.00,Sunday
8,39168567.513535716
600,32814351.201958016
2,1, 1, 1, 0, 8, 0.00,60.00,Sunday
202,20.999999999999993
203,19.270695911593958
534,-0.9078045525836393
535,22.402793883319916
2,1, 1, 1, 0, 9, 0.00,60.00,Sunday
8,39168394.85350576
600,32807826.49556143
2,1, 1, 1, 0, 9, 0.00,60.00,Sunday
202,21.0
203,19.41395736506628
534,-0.8799239929670052
535,21.34561038274346
2,1, 1, 1, 0,10, 0.00,60.00,Sunday
8,40338669.85701968
600,28340916.095244963
2,1, 1, 1, 0,10, 0.00,60.00,Sunday
202,21.000000000000004
203,19.48082975313903
534,-0.8636354655825017
535,20.742713364686878
2,1, 1, 1, 0,11, 0.00,60.00,Sunday
8,38469469.74635154
600,24022479.067882948
2,1, 1, 1, 0,11, 0.00,60.00,Sunday
202,20.999999999999996
203,19.680277931754517
534,-0.830272716626111
535,19.542168046164292
2,1, 1, 1, 0,12, 0.00,60.00,Sunday
8,38415420.84030479
600,22779931.089699436
2,1, 1, 1, 0,12, 0.00,60.00,Sunday
202,20.999999999999996
203,19.849600258240887
534,-0.8052458704509461
535,18.672167823233366
2,1, 1, 1, 0,13, 0.00,60.00,Sunday
8,39655708.9166725
600,22081906.751176976
2,1, 1, 1, 0,13, 0.00,60.00,Sunday
202,21.0
203,19.88061199253259
534,-0.8041210265033586
535,18.633685089470163
2,1, 1, 1, 0,14, 0.00,60.00,Sunday
8,38394234.169422224
600,21979301.047725663
2,1, 1, 1, 0,14, 0.00,60.00,Sunday
202,21.000000000000004
203,19.888507345596366
534,-0.8051853524745781
535,18.670096044395862
2,1, 1, 1, 0,15, 0.00,60.00,Sunday
8,38424942.080047935
600,23139732.335371487
2,1, 1, 1, 0,15, 0.00,60.00,Sunday
202,20.999999999999996
203,19.918773958928398
534,-0.8022001453745028
535,18.568092275437948
2,1, 1, 1, 0,16, 0.00,60.00,Sunday
8,39710164.90161127
600,24141784.057723276
2,1, 1, 1, 0,16, 0.00,60.00,Sunday
202,21.0
203,19.84271737799
534,-0.8189592458495736
535,19.145617527736235
2,1, 1, 1, 0,17, 0.00,60.00,Sunday
8,38976877.671263084
600,25570520.997801628
2,1, 1, 1, 0,17, 0.00,60.00,Sunday
202,21.0
203,19.801392147822853
534,-0.8275305345366377
535,19.445558075685852
2,1, 1, 1, 0,18, 0.00,60.00,Sunday
8,38975776.67514352
600,25528915.095000274
2,1, 1, 1, 0,18, 0.00,60.00,Sunday
202,21.0
203,19.81631892309213
534,-0.8250613290575942
535,19.358835212752723
2,1, 1, 1, 0,19, 0.00,60.00,Sunday
8,39592530.329306595
600,279348.99734199996
2,1, 1, 1, 0,19, 0.00,60.00,Sunday
202,17.557894656474808
203,18.110233750601278
534,-1.2780277937330846
535,39.14366871632977
2,1, 1, 1, 0,20, 0.00,60.00,Sunday
8,38333580.11604396
600,320751.0388986288
2,1, 1, 1, 0,20, 0.00,60.00,Sunday
202,16.25894729770129
203,16.96276130828025
534,-1.5430595851201132
535,53.243297823788495
2,1, 1, 1, 0,21, 0.00,60.00,Sunday
8,38333580.11604396
600,1260739.083908506
2,1, 1, 1, 0,21, 0.00,60.00,Sunday
202,15.805666368884069
203,16.45867658504153
534,-1.651075421507176
535,59.11768968215283
2,1, 1, 1, 0,22, 0.00,60.00,Sunday
8,38363934.71185196
600,2407818.842241224
2,1, 1, 1, 0,22, 0.00,60.00,Sunday
202,15.600088251636281
203,16.19363427608827
534,-1.7036757801621147
535,61.94837305574065
2,1, 1, 1, 0,23, 0.00,60.00,Sunday
8,39678883.41889731
600,4524851.224586379
2,1, 1, 1, 0,23, 0.00,60.00,Sunday
202,15.60000139737016
203,16.099175025007362
534,-1.7181049313147534
535,62.71863935582926
2,1, 1, 1, 0,24, 0.00,60.00,Sunday
8,38453308.59897071
600,5785197.92137307
2,1, 1, 1, 0,24, 0.00,60.00,Sunday
202,15.600000031424646
203,16.0262459576987
534,-1.7305387630056694
535,63.37979623857554
2,2, 1, 2, 0, 1, 0.00,60.00,Monday
8,38213198.52013876
600,6514041.263748542
2,2, 1, 2, 0, 1, 0.00,60.00,Monday
202,15.600000000840252
203,15.968743012023118
534,-1.7426937230976087
535,64.02361090631445
2,2, 1, 2, 0, 2, 0.00,60.00,Monday
8,39488196.69750217
600,7123385.942842323
2,2, 1, 2, 0, 2, 0.00,60.00,Monday
202,15.60000000002564
203,15.912720019653804
534,-1.7557087673547513
535,64.71002458691271
2,2, 1, 2, 0, 3, 0.00,60.00,Monday
8,38260569.795315124
600,8304169.889572452
2,2, 1, 2, 0, 3, 0.00,60.00,Monday
202,15.600000000000973
203,15.855285583984493
534,-1.7693923352666459
535,65.42816634856817
2,2, 1, 2, 0, 4, 0.00,60.00,Monday
8,38256265.0725792
600,8141497.312844765
2,2, 1, 2, 0, 4, 0.00,60.00,Monday
202,15.600000000000053
203,15.814963921952902
534,-1.7790515258424346
535,65.93278887161318
2,2, 1, 2, 0, 5, 0.00,60.00,Monday
8,39525773.86827427
600,8545419.894257657
2,2, 1, 2, 0, 5, 0.00,60.00,Monday
202,15.600000000000016
203,15.77295402219428
534,-1.7877768340562186
535,66.38689522110633
2,2, 1, 2, 0, 6, 0.00,60.00,Monday
8,38276210.50492814
600,8895221.785520617
2,2, 1, 2, 0, 6, 0.00,60.00,Monday
202,15.60000000000002
203,15.730966012281593
534,-1.7968430734955179
535,66.85693704896404
2,2, 1, 2, 0, 7, 0.00,60.00,Monday
8,39219340.07933868
600,34727114.04550221
2,2, 1, 2, 0, 7, 0.00,60.00,Monday
202,20.822676521376465
203,18.30132476172787
534,-1.1067116417878844
535,30.82149133856244
2,2, 1, 2, 0, 8, 0.00,60.00,Monday
8,40505444.99249076
600,35760214.2678092
2,2, 1, 2, 0, 8, 0.00,60.00,Monday
202,21.0
203,19.232831839519076
534,-0.9342228585491574
535,23.433554154547082
2,2, 1, 2, 0, 9, 0.00,60.00,Monday
8,39230858.21498899
600,35162376.64434467
2,2, 1, 2, 0, 9, 0.00,60.00,Monday
202,21.0
203,19.374731815946348
534,-0.9094742244408881
535,22.467107823286625
2,2, 1, 2, 0,10, 0.00,60.00,Monday
8,39172109.823710196
600,32942314.453539185
2,2, 1, 2, 0,10, 0.00,60.00,Monday
202,21.0
203,19.435091875877468
534,-0.897389977963947
535,22.004185885262174
2,2, 1, 2, 0,11, 0.00,60.00,Monday
8,39783869.91193623
600,26920885.409180664
2,2, 1, 2, 0,11, 0.00,60.00,Monday
202,21.0
203,19.772983957765234
534,-0.837266844967503
535,19.790004559795804
2,2, 1, 2, 0,12, 0.00,60.00,Monday
8,38462861.694408625
600,24566790.789125092
2,2, 1, 2, 0,12, 0.00,60.00,Monday
202,21.000000000000004
203,19.86168081403632
534,-0.8222644998246106
535,19.260914774915562
2,2, 1, 2, 0,13, 0.00,60.00,Monday
8,38446478.66060463
600,23947686.961305678
2,2, 1, 2, 0,13, 0.00,60.00,Monday
202,21.000000000000004
203,19.90589711271106
534,-0.8139507575535476
535,18.971782282603
2,2, 1, 2, 0,14, 0.00,60.00,Monday
8,39696101.421418406
600,23606197.202138767
2,2, 1, 2, 0,14, 0.00,60.00,Monday
202,21.0
203,19.935934868981462
534,-0.8071404981398519
535,18.737106946152934
2,2, 1, 2, 0,15, 0.00,60.00,Monday
8,38471206.8798454
600,24882149.733602885
2,2, 1, 2, 0,15, 0.00,60.00,Monday
202,21.0
203,19.91111229280152
534,-0.8130051005917179
535,18.939078871107498
2,2, 1, 2, 0,16, 0.00,60.00,Monday
8,38555559.52319853
600,28069779.388244532
2,2, 1, 2, 0,16, 0.00,60.00,Monday
202,20.999999999999996
203,19.84484004619432
534,-0.8247255244655705
535,19.347060927645856
2,2, 1, 2, 0,17, 0.00,60.00,Monday
8,39073183.42236536
600,29203952.2870609
2,2, 1, 2, 0,17, 0.00,60.00,Monday
202,21.0
203,19.781192442808575
534,-0.8349595848394197
535,19.708020692825585
2,2, 1, 2, 0,18, 0.00,60.00,Monday
8,40354039.02963244
600,30032364.99121875
2,2, 1, 2, 0,18, 0.00,60.00,Monday
202,21.000000000000004
203,19.779359402358942
534,-0.8346340979835454
535,19.696473088218056
2,2, 1, 2, 0,19, 0.00,60.00,Monday
8,38333736.198929705
600,1260739.083908506
2,2, 1, 2, 0,19, 0.00,60.00,Monday
202,16.76922684464549
203,17.663132447663585
534,-1.3969412848173426
535,45.34885373351011
2,2, 1, 2, 0,20, 0.00,60.00,Monday
8,38402563.422001556
600,3861673.548902096
2,2, 1, 2, 0,20, 0.00,60.00,Monday
202,15.727712394481431
203,16.49371670204094
534,-1.6574299803660744
535,59.46125850513178
2,2, 1, 2, 0,21, 0.00,60.00,Monday
8,39769385.76865337
600,7940729.9143159175
2,2, 1, 2, 0,21, 0.00,60.00,Monday
202,15.600000013010211
203,16.160907897650084
534,-1.7268021843246655
535,63.1813721064615
2,2, 1, 2, 0,22, 0.00,60.00,Monday
8,40500558.79728203
600,7866672.274156684
2,2, 1, 2, 0,22, 0.00,60.00,Monday
202,15.60000000372292
203,16.04588876313367
534,-1.7489826358031364
535,64.35568291458799
2,2, 1, 2, 0,23, 0.00,60.00,Monday
8,40500558.79728203
600,9650872.430105364
2,2, 1, 2, 0,23, 0.00,60.00,Monday
202,15.600000001097111
203,15.96274216493963
534,-1.7648620704633478
535,65.1908243544419
2,2, 1, 2, 0,24, 0.00,60.00,Monday
8,41759385.72958187
600,9725288.237132344
2,2, 1, 2, 0,24, 0.00,60.00,Monday
202,15.600000000331875
203,15.904248997550491
534,-1.7752693104842314
535,65.73543052172526
2,3, 1, 3, 0, 1, 0.00,60.00,Tuesday
8,38413396.32426528
600,14079381.623697672
2,3, 1, 3, 0, 1, 0.00,60.00,Tuesday
202,15.60000000002177
203,15.830179596650584
534,-1.7896902937156631
535,66.4862548474691
2,3, 1, 3, 0, 2, 0.00,60.00,Tuesday
8,38442290.656230636
600,15171278.993626725
2,3, 1, 3, 0, 2, 0.00,60.00,Tuesday
202,15.600000000001632
203,15.765626190214089
534,-1.8034701651775666
535,67.19931422703954
2,3, 1, 3, 0, 3, 0.00,60.00,Tuesday
8,39733909.8072591
600,16412494.60524453
2,3, 1, 3, 0, 3, 0.00,60.00,Tuesday
202,15.600000000000142
203,15.702632424610062
534,-1.8167524647743765
535,67.8823326101631
2,3, 1, 3, 0, 4, 0.00,60.00,Tuesday
8,38455993.146400556
600,15689086.880514361
2,3, 1, 3, 0, 4, 0.00,60.00,Tuesday
202,15.600000000000023
203,15.662169005925293
534,-1.8238506297080146
535,68.24553731117956
2,3, 1, 3, 0, 5, 0.00,60.00,Tuesday
8,38465321.93618503
600,16041615.571695125
2,3, 1, 3, 0, 5, 0.00,60.00,Tuesday
202,15.600000000000016
203,15.623109429316283
534,-1.829285737349707
535,68.52276765202663
2,3, 1, 3, 0, 6, 0.00,60.00,Tuesday
8,39696805.278259985
600,15012361.150921978
2,3, 1, 3, 0, 6, 0.00,60.00,Tuesday
202,15.600000000000012
203,15.6014907367746
534,-1.8301439781712583
535,68.56647351378949
2,3, 1, 3, 0, 7, 0.00,60.00,Tuesday
8,39461696.96536372
600,43885617.753155954
2,3, 1, 3, 0, 7, 0.00,60.00,Tuesday
202,20.7960735693361
203,18.15735396148347
534,-1.1430295349819573
535,32.511870610353824
2,3, 1, 3, 0, 8, 0.00,60.00,Tuesday
8,39430542.50710164
600,42708311.730690874
2,3, 1, 3, 0, 8, 0.00,60.00,Tuesday
202,21.000000000000004
203,19.13413158289628
534,-0.9555754911147238
535,24.287000774400866
2,3, 1, 3, 0, 9, 0.00,60.00,Tuesday
8,40703560.33630054
600,43250642.93974932
2,3, 1, 3, 0, 9, 0.00,60.00,Tuesday
202,20.999999999999996
203,19.263552706794552
534,-0.9346079032831263
535,23.44878403762607
2,3, 1, 3, 0,10, 0.00,60.00,Tuesday
8,39387062.32739165
600,41065224.9852937
2,3, 1, 3, 0,10, 0.00,60.00,Tuesday
202,20.999999999999996
203,19.322457465913665
534,-0.9233270579530665
535,23.005039869530208
2,3, 1, 3, 0,11, 0.00,60.00,Tuesday
8,38799191.82258657
600,37276480.10901163
2,3, 1, 3, 0,11, 0.00,60.00,Tuesday
202,20.999999999999996
203,19.52267324883935
534,-0.8863918177608143
535,21.588033132038206
2,3, 1, 3, 0,12, 0.00,60.00,Tuesday
8,38699789.10931848
600,33520118.43533261
2,3, 1, 3, 0,12, 0.00,60.00,Tuesday
202,21.0
203,19.631451921285183
534,-0.8643121560336876
535,20.767542230766935
2,3, 1, 3, 0,13, 0.00,60.00,Tuesday
8,39908427.59868437
600,31619234.5773686
2,3, 1, 3, 0,13, 0.00,60.00,Tuesday
202,21.0
203,19.638746638410836
534,-0.8593465799092755
535,20.585787789881138
2,3, 1, 3, 0,14, 0.00,60.00,Tuesday
8,38600612.34311076
600,29772295.149087366
2,3, 1, 3, 0,14, 0.00,60.00,Tuesday
202,21.0
203,19.738549728980516
534,-0.8382193687966205
535,19.82391548527906
2,3, 1, 3, 0,15, 0.00,60.00,Tuesday
8,38615719.72622528
600,30343192.99538568
2,3, 1, 3, 0,15, 0.00,60.00,Tuesday
202,21.0
203,19.727157834985242
534,-0.8396362096407433
535,19.874426746910444
2,3, 1, 3, 0,16, 0.00,60.00,Tuesday
8,39895488.2698213
600,31132281.45715649
2,3, 1, 3, 0,16, 0.00,60.00,Tuesday
202,21.0
203,19.672914818186044
534,-0.8485034701323296
535,20.192452332481153
2,3, 1, 3, 0,17, 0.00,60.00,Tuesday
8,39131994.54371372
600,31426385.005001307
2,3, 1, 3, 0,17, 0.00,60.00,Tuesday
202,20.999999999999996
203,19.672626949917095
534,-0.847626110122154
535,20.160839640932068
2,3, 1, 3, 0,18, 0.00,60.00,Tuesday
8,39125361.98253157
600,31175744.97915253
2,3, 1, 3, 0,18, 0.00,60.00,Tuesday
202,21.0
203,19.692550319046923
534,-0.843381333076364
535,20.00834626114127
2,3, 1, 3, 0,19, 0.00,60.00,Tuesday
8,39592695.66472014
600,1260739.0839085067
2,3, 1, 3, 0,19, 0.00,60.00,Tuesday
202,16.973679629846796
203,17.70369278600355
534,-1.3702727234511634
535,43.93422661703007
2,3, 1, 3, 0,20, 0.00,60.00,Tuesday
8,38366952.6074481
600,2515964.8196412288
2,3, 1, 3, 0,20, 0.00,60.00,Tuesday
202,15.759398898173055
203,16.497636094178
534,-1.6412791480750835
535,58.587342685664616
2,3, 1, 3, 0,21, 0.00,60.00,Tuesday
8,38463693.14415584
600,6171724.631750313
2,3, 1, 3, 0,21, 0.00,60.00,Tuesday
202,15.60000000000287
203,16.13466765692939
534,-1.7136755864611781
535,62.48252083500937
2,3, 1, 3, 0,22, 0.00,60.00,Tuesday
8,41759339.33520914
600,5342949.177764889
2,3, 1, 3, 0,22, 0.00,60.00,Tuesday
202,15.600000000000842
203,16.01991696564813
534,-1.7337675141039435
535,63.551064071210966
2,3, 1, 3, 0,23, 0.00,60.00,Tuesday
8,40500558.79728203
600,7086803.043653526
2,3, 1, 3, 0,23, 0.00,60.00,Tuesday
202,15.600000000000264
203,15.932216798751233
534,-1.749715408121836
535,64.39432782393246
2,3, 1, 3, 0,24, 0.00,60.00,Tuesday
8,40500558.79728203
600,9067862.549810424
2,3, 1, 3, 0,24, 0.00,60.00,Tuesday
202,15.60000000000009
203,15.85900443200935
534,-1.7639726570128007
535,65.1441787455172
2,4, 1, 4, 0, 1, 0.00,60.00,Wednesday
8,39637239.457552694
600,12761142.075513445
2,4, 1, 4, 0, 1, 0.00,60.00,Wednesday
202,15.600000000000021
203,15.785613319595058
534,-1.7818284482536761
535,66.07749426224169
2,4, 1, 4, 0, 2, 0.00,60.00,Wednesday
8,38375184.76626201
600,12635392.548792688
2,4, 1, 4, 0, 2, 0.00,60.00,Wednesday
202,15.600000000000017
203,15.730088441799065
534,-1.7932093645333786
535,66.66877209793236
2,4, 1, 4, 0, 3, 0.00,60.00,Wednesday
8,38407292.70146213
600,13848729.823414203
2,4, 1, 4, 0, 3, 0.00,60.00,Wednesday
202,15.600000000000016
203,15.672503877470596
534,-1.8046606963199645
535,67.26071050312203
2,4, 1, 4, 0, 4, 0.00,60.00,Wednesday
8,39676434.24684072
600,14244310.285852281
2,4, 1, 4, 0, 4, 0.00,60.00,Wednesday
202,15.600000000000016
203,15.629765810106282
534,-1.8132478882358065
535,67.70253808655056
2,4, 1, 4, 0, 5, 0.00,60.00,Wednesday
8,38429384.5109714
600,14683564.445272448
2,4, 1, 4, 0, 5, 0.00,60.00,Wednesday
202,15.600000000000014
203,15.584222570809587
534,-1.8220006857762843
535,68.15100186484219
2,4, 1, 4, 0, 6, 0.00,60.00,Wednesday
8,38437664.62818428
600,14996464.505335713
2,4, 1, 4, 0, 6, 0.00,60.00,Wednesday
202,15.600000000000016
203,15.549824856844452
534,-1.828464266637658
535,68.4809161426011
2,4, 1, 4, 0, 7, 0.00,60.00,Wednesday
8,39423552.3297591
600,42444157.63068227
2,4, 1, 4, 0, 7, 0.00,60.00,Wednesday
202,20.80051310337636
203,18.12004663400768
534,-1.1381446242871085
535,32.2820007057275
2,4, 1, 4, 0, 8, 0.00,60.00,Wednesday
8,40674821.831006154
600,42154006.684012815
2,4, 1, 4, 0, 8, 0.00,60.00,Wednesday
202,21.0
203,19.101481390592802
534,-0.9503738605430847
535,24.077436575305384
2,4, 1, 4, 0, 9, 0.00,60.00,Wednesday
8,39388118.64788076
600,41105142.626070224
2,4, 1, 4, 0, 9, 0.00,60.00,Wednesday
202,21.000000000000004
203,19.248750787223123
534,-0.9256443586771785
535,23.095778077573613
2,4, 1, 4, 0,10, 0.00,60.00,Wednesday
8,39292172.0797592
600,37479386.35279007
2,4, 1, 4, 0,10, 0.00,60.00,Wednesday
202,20.999999999999996
203,19.326630780294707
534,-0.9085486397941234
535,22.431441385078287
2,4, 1, 4, 0,11, 0.00,60.00,Wednesday
8,39936700.35384912
600,32689393.7733258
2,4, 1, 4, 0,11, 0.00,60.00,Wednesday
202,21.0
203,19.527178890484414
534,-0.8664241838706376
535,20.845157664096178
2,4, 1, 4, 0,12, 0.00,60.00,Wednesday
8,38578531.69661552
600,28937882.370020643
2,4, 1, 4, 0,12, 0.00,60.00,Wednesday
202,21.0
203,19.59977596759073
534,-0.8507869633291548
535,20.27488041861642
2,4, 1, 4, 0,13, 0.00,60.00,Wednesday
8,38547803.15877586
600,27776671.593834247
2,4, 1, 4, 0,13, 0.00,60.00,Wednesday
202,21.0
203,19.641235722160438
534,-0.83881810850263
535,19.84525069984987
2,4, 1, 4, 0,14, 0.00,60.00,Wednesday
8,39798032.79599656
600,27451257.206415243
2,4, 1, 4, 0,14, 0.00,60.00,Wednesday
202,21.0
203,19.660813430575942
534,-0.831401841946413
535,19.582039922895333
2,4, 1, 4, 0,15, 0.00,60.00,Wednesday
8,38591130.39602095
600,29413978.746355403
2,4, 1, 4, 0,15, 0.00,60.00,Wednesday
202,21.000000000000004
203,19.63814733818177
534,-0.8331849371084047
535,19.645113642942817
2,4, 1, 4, 0,16, 0.00,60.00,Wednesday
8,38628345.4965727
600,30820312.364409454
2,4, 1, 4, 0,16, 0.00,60.00,Wednesday
202,20.999999999999996
203,19.631086916150437
534,-0.83485146037249
535,19.70418416739747
2,4, 1, 4, 0,17, 0.00,60.00,Wednesday
8,40371163.377578504
600,30685009.492776185
2,4, 1, 4, 0,17, 0.00,60.00,Wednesday
202,21.000000000000004
203,19.64593309661091
534,-0.8330159623449107
535,19.639130760968754
2,4, 1, 4, 0,18, 0.00,60.00,Wednesday
8,39120992.48068145
600,31010624.44327132
2,4, 1, 4, 0,18, 0.00,60.00,Wednesday
202,21.000000000000004
203,19.660738469424878
534,-0.832083393541087
535,19.60613284183907
2,4, 1, 4, 0,19, 0.00,60.00,Wednesday
8,38333736.198929705
600,1260739.0839085067
2,4, 1, 4, 0,19, 0.00,60.00,Wednesday
202,17.006995950148248
203,17.690180399676855
534,-1.3564681213695113
535,43.20662075744979
2,4, 1, 4, 0,20, 0.00,60.00,Wednesday
8,39592666.46663206
600,1260739.0839085062
2,4, 1, 4, 0,20, 0.00,60.00,Wednesday
202,16.2081186728723
203,16.738908423668896
534,-1.5618292119993356
535,54.26610376475768
2,4, 1, 4, 0,21, 0.00,60.00,Wednesday
8,38374510.434051156
600,2801570.00338977
2,4, 1, 4, 0,21, 0.00,60.00,Wednesday
202,15.636778493286705
203,16.228108047061944
534,-1.6884548440891851
535,61.13264869603299
2,4, 1, 4, 0,22, 0.00,60.00,Wednesday
8,40500558.79728203
600,2622976.9940411826
2,4, 1, 4, 0,22, 0.00,60.00,Wednesday
202,15.600001925887298
203,16.05175716741126
534,-1.7290840489849022
535,63.30257397672578
2,4, 1, 4, 0,23, 0.00,60.00,Wednesday
8,41759239.204720154
600,3862755.7721391926
2,4, 1, 4, 0,23, 0.00,60.00,Wednesday
202,15.600000574931338
203,15.972053481285037
534,-1.7463433199715763
535,64.21640811903018
2,4, 1, 4, 0,24, 0.00,60.00,Wednesday
8,40500558.79728203
600,5321221.870405594
2,4, 1, 4, 0,24, 0.00,60.00,Wednesday
202,15.600000175979611
203,15.906859255554355
534,-1.76004387590977
535,64.93794300946985
2,5, 1, 5, 0, 1, 0.00,60.00,Thursday
8,38298434.97286434
600,9735069.48010279
2,5, 1, 5, 0, 1, 0.00,60.00,Thursday
202,15.60000000792955
203,15.826290400146451
534,-1.7836467746823814
535,66.17215612232405
2,5, 1, 5, 0, 2, 0.00,60.00,Thursday
8,38329159.42516291
600,10896125.86643989
2,5, 1, 5, 0, 2, 0.00,60.00,Thursday
202,15.600000000425343
203,15.763873150637401
534,-1.8049265571934314
535,67.27441643469211
2,5, 1, 5, 0, 3, 0.00,60.00,Thursday
8,39632094.91041297
600,12558137.767149795
2,5, 1, 5, 0, 3, 0.00,60.00,Thursday
202,15.60000000002737
203,15.698593747501802
534,-1.8261034456774197
535,68.3605408540914
2,5, 1, 5, 0, 4, 0.00,60.00,Thursday
8,38400830.45028764
600,13604525.698200341
2,5, 1, 5, 0, 4, 0.00,60.00,Thursday
202,15.600000000001874
203,15.642740045162416
534,-1.8447822962891016
535,69.30888603108278
2,5, 1, 5, 0, 5, 0.00,60.00,Thursday
8,38426470.869069606
600,14573459.877591373
2,5, 1, 5, 0, 5, 0.00,60.00,Thursday
202,15.600000000000149
203,15.599881879689741
534,-1.8592970781793243
535,70.03916318079405
2,5, 1, 5, 0, 6, 0.00,60.00,Thursday
8,39732684.843999706
600,16361378.584768314
2,5, 1, 5, 0, 6, 0.00,60.00,Thursday
202,15.600000000000026
203,15.537014583425087
534,-1.8761900591626381
535,70.88136593888592
2,5, 1, 5, 0, 7, 0.00,60.00,Thursday
8,39512575.18740694
600,45808271.54221963
2,5, 1, 5, 0, 7, 0.00,60.00,Thursday
202,20.78886258454436
203,18.07730291010796
534,-1.1969774627880305
535,35.09987056381681
2,5, 1, 5, 0, 8, 0.00,60.00,Thursday
8,39530890.85582381
600,46500408.33212158
2,5, 1, 5, 0, 8, 0.00,60.00,Thursday
202,20.999999999999996
203,19.059384271451798
534,-1.012491370454161
535,26.64855850682838
2,5, 1, 5, 0, 9, 0.00,60.00,Thursday
8,40782656.20795098
600,46232768.64648976
2,5, 1, 5, 0, 9, 0.00,60.00,Thursday
202,20.999999999999996
203,19.19251475435321
534,-0.9888879312067057
535,25.6541155106638
2,5, 1, 5, 0,10, 0.00,60.00,Thursday
8,39449304.77226942
600,43417325.11141788
2,5, 1, 5, 0,10, 0.00,60.00,Thursday
202,21.0
203,19.258898205871237
534,-0.9803890438154772
535,25.301246852392325
2,5, 1, 5, 0,11, 0.00,60.00,Thursday
8,38844278.96922957
600,38980293.05392136
2,5, 1, 5, 0,11, 0.00,60.00,Thursday
202,20.999999999999996
203,19.5001935535256
534,-0.9363173010929243
535,23.51646803928405
2,5, 1, 5, 0,12, 0.00,60.00,Thursday
8,40036488.7183254
600,36464106.12343197
2,5, 1, 5, 0,12, 0.00,60.00,Thursday
202,21.0
203,19.634910372612882
534,-0.9119785152258741
535,22.563781605849485
2,5, 1, 5, 0,13, 0.00,60.00,Thursday
8,38767852.075944856
600,36092172.16330933
2,5, 1, 5, 0,13, 0.00,60.00,Thursday
202,21.0
203,19.649031557837517
534,-0.9090680287196429
535,22.4514512300736
2,5, 1, 5, 0,14, 0.00,60.00,Thursday
8,38778792.69278911
600,36505610.7149243
2,5, 1, 5, 0,14, 0.00,60.00,Thursday
202,21.0
203,19.675337051025036
534,-0.9040044363938425
535,22.256838212944587
2,5, 1, 5, 0,15, 0.00,60.00,Thursday
8,40046377.02570718
600,36839799.56127024
2,5, 1, 5, 0,15, 0.00,60.00,Thursday
202,21.0
203,19.68771051798244
534,-0.9009064659627698
535,22.13828387078155
2,5, 1, 5, 0,16, 0.00,60.00,Thursday
8,38843796.050482675
600,38962043.87929905
2,5, 1, 5, 0,16, 0.00,60.00,Thursday
202,21.0
203,19.626031651144597
534,-0.9121312265988972
535,22.569684955207748
2,5, 1, 5, 0,17, 0.00,60.00,Thursday
8,39378362.21928832
600,40736453.75197688
2,5, 1, 5, 0,17, 0.00,60.00,Thursday
202,21.000000000000007
203,19.563965175992934
534,-0.9233695850793777
535,23.006703159377025
2,5, 1, 5, 0,18, 0.00,60.00,Thursday
8,40640721.10760702
600,40875199.528792866
2,5, 1, 5, 0,18, 0.00,60.00,Thursday
202,21.0
203,19.570373446971345
534,-0.9224590702827243
535,22.971107618951933
2,5, 1, 5, 0,19, 0.00,60.00,Thursday
8,38407491.19956014
600,4047890.948296123
2,5, 1, 5, 0,19, 0.00,60.00,Thursday
202,16.02499002811652
203,17.0933300407131
534,-1.581671571452125
535,55.3473051671186
2,5, 1, 5, 0,20, 0.00,60.00,Thursday
8,38651891.76953713
600,13283624.097861625
2,5, 1, 5, 0,20, 0.00,60.00,Thursday
202,15.606717958180436
203,16.125342335297603
534,-1.7773806549281772
535,65.8456395262173
2,5, 1, 5, 0,21, 0.00,60.00,Thursday
8,38728231.52056605
600,16168451.941241179
2,5, 1, 5, 0,21, 0.00,60.00,Thursday
202,15.600045592911922
203,15.923890247829096
534,-1.814008118958722
535,67.74156607699499
2,5, 1, 5, 0,22, 0.00,60.00,Thursday
8,41759520.084079385
600,15336412.329963122
2,5, 1, 5, 0,22, 0.00,60.00,Thursday
202,15.600013847408643
203,15.822086091988382
534,-1.832158309434059
535,68.66897671405802
2,5, 1, 5, 0,23, 0.00,60.00,Thursday
8,40500558.79728203
600,16184945.288395021
2,5, 1, 5, 0,23, 0.00,60.00,Thursday
202,15.600004389926005
203,15.743654824804374
534,-1.8461430339664906
535,69.37760099743053
2,5, 1, 5, 0,24, 0.00,60.00,Thursday
8,40500558.79728203
600,16958301.032897074
2,5, 1, 5, 0,24, 0.00,60.00,Thursday
202,15.600001352952956
203,15.677710836639648
534,-1.8579072462560067
535,69.96949776425288
2,6, 1, 6, 0, 1, 0.00,60.00,Friday
8,39820111.01330087
600,19664897.940080453
2,6, 1, 6, 0, 1, 0.00,60.00,Friday
202,15.600000124572803
203,15.619035662003387
534,-1.8683070176284944
535,70.48941479199772
2,6, 1, 6, 0, 2, 0.00,60.00,Friday
8,38591404.03518996
600,20806173.287154853
2,6, 1, 6, 0, 2, 0.00,60.00,Friday
202,15.600000011998645
203,15.56036383643207
534,-1.878739987484046
535,71.00774600300512
2,6, 1, 6, 0, 3, 0.00,60.00,Friday
8,38589430.42528803
600,20731591.896459688
2,6, 1, 6, 0, 3, 0.00,60.00,Friday
202,15.600000001159213
203,15.514967708574476
534,-1.8868208850602861
535,71.40692394594934
2,6, 1, 6, 0, 4, 0.00,60.00,Friday
8,39875357.10411128
600,21754627.20611244
2,6, 1, 6, 0, 4, 0.00,60.00,Friday
202,15.60000000011869
203,15.463164443153346
534,-1.895088247888371
535,71.81318478014326
2,6, 1, 6, 0, 5, 0.00,60.00,Friday
8,38626104.20996496
600,22117469.5517068
2,6, 1, 6, 0, 5, 0.00,60.00,Friday
202,15.600000000012576
203,15.421282067258907
534,-1.9016347596840544
535,72.13332368675509
2,6, 1, 6, 0, 6, 0.00,60.00,Friday
8,38636463.50045256
600,22508940.171318535
2,6, 1, 6, 0, 6, 0.00,60.00,Friday
202,15.600000000001401
203,15.377897907639843
534,-1.9084531131681357
535,72.46526363659228
2,6, 1, 6, 0, 7, 0.00,60.00,Friday
8,40838848.12549161
600,48357284.53920504
2,6, 1, 6, 0, 7, 0.00,60.00,Friday
202,20.771488625336417
203,17.935640106779392
534,-1.220154346375857
535,36.238172294683494
2,6, 1, 6, 0, 8, 0.00,60.00,Friday
8,39621547.221195884
600,49926251.40182006
2,6, 1, 6, 0, 8, 0.00,60.00,Friday
202,21.0
203,18.97591150746596
534,-1.0197307649361054
535,26.95777127208497
2,6, 1, 6, 0, 9, 0.00,60.00,Friday
8,39604971.10657357
600,49299851.1797472
2,6, 1, 6, 0, 9, 0.00,60.00,Friday
202,21.000000000000007
203,19.116474536957647
534,-0.9922673855040175
535,25.795197859166734
2,6, 1, 6, 0,10, 0.00,60.00,Friday
8,40801666.559050016
600,46954934.79478268
2,6, 1, 6, 0,10, 0.00,60.00,Friday
202,21.0
203,19.182466946468622
534,-0.9799281752151918
535,25.282191280920983
2,6, 1, 6, 0,11, 0.00,60.00,Friday
8,38970549.506774575
600,43751971.73506196
2,6, 1, 6, 0,11, 0.00,60.00,Friday
202,20.999999999999996
203,19.38039003473019
534,-0.9460511562242135
535,23.904093777389605
2,6, 1, 6, 0,12, 0.00,60.00,Friday
8,38899778.650349915
600,41077588.67300149
2,6, 1, 6, 0,12, 0.00,60.00,Friday
202,20.999999999999996
203,19.52678324307165
534,-0.9191614427639809
535,22.84246912322
2,6, 1, 6, 0,13, 0.00,60.00,Friday
8,40120376.578159355
600,39637953.45968339
2,6, 1, 6, 0,13, 0.00,60.00,Friday
202,20.999999999999996
203,19.568356864058366
534,-0.9120183897010872
535,22.565322938927793
2,6, 1, 6, 0,14, 0.00,60.00,Friday
8,38870012.6969221
600,39952753.31428063
2,6, 1, 6, 0,14, 0.00,60.00,Friday
202,21.0
203,19.594114988240364
534,-0.9071198144560926
535,22.37645112503074
2,6, 1, 6, 0,15, 0.00,60.00,Friday
8,38908289.67348486
600,41399214.5125466
2,6, 1, 6, 0,15, 0.00,60.00,Friday
202,21.0
203,19.4919307605441
534,-0.9256617986895237
535,23.096461789216804
2,6, 1, 6, 0,16, 0.00,60.00,Friday
8,39620406.605519675
600,42446526.89524822
2,6, 1, 6, 0,16, 0.00,60.00,Friday
202,21.0
203,19.48375710801675
534,-0.9279091289245999
535,23.184667129030473
2,6, 1, 6, 0,17, 0.00,60.00,Friday
8,39510454.70895353
600,42458730.2091105
2,6, 1, 6, 0,17, 0.00,60.00,Friday
202,20.999999999999996
203,19.487906523338495
534,-0.9290347532941463
535,23.228922624933176
2,6, 1, 6, 0,18, 0.00,60.00,Friday
8,39416752.74979496
600,42187206.07740289
2,6, 1, 6, 0,18, 0.00,60.00,Friday
202,20.999999999999996
203,19.50848694011958
534,-0.9230868062827807
535,22.995644684176455
2,6, 1, 6, 0,19, 0.00,60.00,Friday
8,38395106.127029575
600,3579867.38787199
2,6, 1, 6, 0,19, 0.00,60.00,Friday
202,16.03138669900331
203,17.04982647849898
534,-1.575741369664157
535,55.024221215860976
2,6, 1, 6, 0,20, 0.00,60.00,Friday
8,39907257.77801092
600,13149509.178163433
2,6, 1, 6, 0,20, 0.00,60.00,Friday
202,15.606802861526049
203,16.084167453337262
534,-1.7686656147896178
535,65.39012151949748
2,6, 1, 6, 0,21, 0.00,60.00,Friday
8,38710262.741026595
600,15489423.8486902
2,6, 1, 6, 0,21, 0.00,60.00,Friday
202,15.600045256909064
203,15.876978767294275
534,-1.8069662100808102
535,67.37951004180147
2,6, 1, 6, 0,22, 0.00,60.00,Friday
8,40500558.79728203
600,15859726.32361398
2,6, 1, 6, 0,22, 0.00,60.00,Friday
202,15.600014125667132