Program Version,EnergyPlus, Version 22.2.0-aa78da9668, YMD=2023.04.10 12:11
1,5,Environment Title[],Latitude[deg],Longitude[deg],Time Zone[],Elevation[m]
2,8,Day of Simulation[],Month[],Day of Month[],DST Indicator[1=yes 0=no],Hour[],StartMinute[],EndMinute[],DayType
3,5,Cumulative Day of Simulation[],Month[],Day of Month[],DST Indicator[1=yes 0=no],DayType  ! When Daily Report Variables Requested
4,2,Cumulative Days of Simulation[],Month[]  ! When Monthly Report Variables Requested
5,1,Cumulative Days of Simulation[] ! When Run Period Report Variables Requested
6,1,Calendar Year of Simulation[] ! When Annual Report Variables Requested
8,1,Electricity:Facility [J] !TimeStep
1728,1,NaturalGas:Facility [J] !TimeStep
End of Data Dictionary
1,KODIAK ANN CLG .4% CONDNS DB=>MWB HVAC Sizing Pass 1,  57.75,-152.49,  -9.00,  34.00
2,1, 8,21, 0, 1, 0.00,10.00,SummerDesignDay
8,10022046.036836203
1728,0.0
2,1, 8,21, 0, 1,10.00,20.00,SummerDesignDay
8,10022046.036836203
1728,0.0
2,1, 8,21, 0, 1,20.00,30.00,SummerDesignDay
8,10022046.036836203
1728,0.0
2,1, 8,21, 0, 1,30.00,40.00,SummerDesignDay
8,10022046.036836203
1728,0.0
2,1, 8,21, 0, 1,40.00,50.00,SummerDesignDay
8,10022046.036836203
1728,0.0
2,1, 8,21, 0, 1,50.00,60.00,SummerDesignDay
8,10022046.036836203
1728,0.0
2,1, 8,21, 0, 2, 0.00,10.00,SummerDesignDay
8,10022046.036836203
1728,0.0
2,1, 8,21, 0, 2,10.00,20.00,SummerDesignDay
8,10022046.036836203
1728,0.0
2,1, 8,21, 0, 2,20.00,30.00,SummerDesignDay
8,10022046.036836203
1728,0.0
2,1, 8,21, 0, 2,30.00,40.00,SummerDesignDay
8,10022046.036836203
1728,837627.2990599785
2,1, 8,21, 0, 2,40.00,50.00,SummerDesignDay
8,10022046.036836203
1728,1000471.8691032372
2,1, 8,21, 0, 2,50.00,60.00,SummerDesignDay
8,10022046.036836203
1728,0.0
2,1, 8,21, 0, 3, 0.00,10.00,SummerDesignDay
8,10022046.036836203
1728,0.0
2,1, 8,21, 0, 3,10.00,20.00,SummerDesignDay
8,10022046.036836203
1728,0.0
2,1, 8,21, 0, 3,20.00,30.00,SummerDesignDay
8,10022046.036836203
1728,0.0
2,1, 8,21, 0, 3,30.00,40.00,SummerDesignDay
8,10022046.036836203
1728,0.0
2,1, 8,21, 0, 3,40.00,50.00,SummerDesignDay
8,10022046.036836203
1728,0.0
2,1, 8,21, 0, 3,50.00,60.00,SummerDesignDay
8,10022046.036836203
1728,0.0
2,1, 8,21, 0, 4, 0.00,10.00,SummerDesignDay
8,10022046.036836203
1728,0.0
2,1, 8,21, 0, 4,10.00,20.00,SummerDesignDay
8,10022046.036836203
1728,0.0
2,1, 8,21, 0, 4,20.00,30.00,SummerDesignDay
8,10022046.036836203
1728,1147055.893217417
2,1, 8,21, 0, 4,30.00,40.00,SummerDesignDay
8,10022046.036836203
1728,691077.5325942107
2,1, 8,21, 0, 4,40.00,50.00,SummerDesignDay
8,10022046.036836203
1728,0.0
2,1, 8,21, 0, 4,50.00,60.00,SummerDesignDay
8,10022046.036836203
1728,0.0
2,1, 8,21, 0, 5, 0.00,10.00,SummerDesignDay
8,10022046.036836203
1728,0.0
2,1, 8,21, 0, 5,10.00,20.00,SummerDesignDay
8,10022046.036836203
1728,0.0
2,1, 8,21, 0, 5,20.00,30.00,SummerDesignDay
8,10022046.036836203
1728,0.0
2,1, 8,21, 0, 5,30.00,40.00,SummerDesignDay
8,10022046.036836203
1728,0.0
2,1, 8,21, 0, 5,40.00,50.00,SummerDesignDay
8,10022046.036836203
1728,0.0
2,1, 8,21, 0, 5,50.00,60.00,SummerDesignDay
8,11276762.46350168
1728,0.0
2,1, 8,21, 0, 6, 0.00,10.00,SummerDesignDay
8,10022046.036836203
1728,146350.6524753382
2,1, 8,21, 0, 6,10.00,20.00,SummerDesignDay
8,10022046.036836203
1728,1310043.1717517846
2,1, 8,21, 0, 6,20.00,30.00,SummerDesignDay
8,10022046.036836203
1728,381760.85827474657
2,1, 8,21, 0, 6,30.00,40.00,SummerDesignDay
8,10022046.036836203
1728,0.0
2,1, 8,21, 0, 6,40.00,50.00,SummerDesignDay
8,10022046.036836203
1728,0.0
2,1, 8,21, 0, 6,50.00,60.00,SummerDesignDay
8,9660300.036836205
1728,0.0
2,1, 8,21, 0, 7, 0.00,10.00,SummerDesignDay
8,9660300.036836205
1728,0.0
2,1, 8,21, 0, 7,10.00,20.00,SummerDesignDay
8,9660300.036836205
1728,0.0
2,1, 8,21, 0, 7,20.00,30.00,SummerDesignDay
8,9660300.036836205
1728,0.0
2,1, 8,21, 0, 7,30.00,40.00,SummerDesignDay
8,9660300.036836205
1728,0.0
2,1, 8,21, 0, 7,40.00,50.00,SummerDesignDay
8,9660300.036836205
1728,0.0
2,1, 8,21, 0, 7,50.00,60.00,SummerDesignDay
8,9660300.036836205
1728,455695.6152803254
2,1, 8,21, 0, 8, 0.00,10.00,SummerDesignDay
8,9660746.050712965
1728,1310043.1717517846
2,1, 8,21, 0, 8,10.00,20.00,SummerDesignDay
8,9660746.050712965
1728,1310043.1717517846
2,1, 8,21, 0, 8,20.00,30.00,SummerDesignDay
8,9660746.050712965
1728,1310043.1717517846
2,1, 8,21, 0, 8,30.00,40.00,SummerDesignDay
8,9660746.050712965
1728,450726.4357157144
2,1, 8,21, 0, 8,40.00,50.00,SummerDesignDay
8,9660746.050712965
1728,0.0
2,1, 8,21, 0, 8,50.00,60.00,SummerDesignDay
8,9660746.050712965
1728,1180223.605100236
2,1, 8,21, 0, 9, 0.00,10.00,SummerDesignDay
8,9660746.050712965
1728,1310043.1717517846
2,1, 8,21, 0, 9,10.00,20.00,SummerDesignDay
8,9660746.050712965
1728,1310043.1717517846
2,1, 8,21, 0, 9,20.00,30.00,SummerDesignDay
8,9660746.050712965
1728,1310043.1717517846
2,1, 8,21, 0, 9,30.00,40.00,SummerDesignDay
8,9660746.050712965
1728,516313.07401402737
2,1, 8,21, 0, 9,40.00,50.00,SummerDesignDay
8,9660746.050712965
1728,0.0
2,1, 8,21, 0, 9,50.00,60.00,SummerDesignDay
8,9660746.050712965
1728,1186076.061043074
2,1, 8,21, 0,10, 0.00,10.00,SummerDesignDay
8,9660746.050712965
1728,1310043.1717517846
2,1, 8,21, 0,10,10.00,20.00,SummerDesignDay
8,9660746.050712965
1728,1310043.1717517846
2,1, 8,21, 0,10,20.00,30.00,SummerDesignDay
8,9660746.050712965
1728,1310043.1717517846
2,1, 8,21, 0,10,30.00,40.00,SummerDesignDay
8,9660746.050712965
1728,1037579.9064915419
2,1, 8,21, 0,10,40.00,50.00,SummerDesignDay
8,10915450.90469806
1728,0.0
2,1, 8,21, 0,10,50.00,60.00,SummerDesignDay
8,9660746.050712965
1728,750390.3577581543
2,1, 8,21, 0,11, 0.00,10.00,SummerDesignDay
8,9660746.050712965
1728,1310043.1717517846
2,1, 8,21, 0,11,10.00,20.00,SummerDesignDay
8,9660746.050712965
1728,1310043.1717517846
2,1, 8,21, 0,11,20.00,30.00,SummerDesignDay
8,9660746.050712965
1728,1310043.1717517846
2,1, 8,21, 0,11,30.00,40.00,SummerDesignDay
8,9660746.050712965
1728,1310043.1717517846
2,1, 8,21, 0,11,40.00,50.00,SummerDesignDay
8,9660746.050712965
1728,310458.46741999144
2,1, 8,21, 0,11,50.00,60.00,SummerDesignDay
8,9660746.050712965
1728,167434.56056671785
2,1, 8,21, 0,12, 0.00,10.00,SummerDesignDay
8,9660746.050712965
1728,1310043.1717517846
2,1, 8,21, 0,12,10.00,20.00,SummerDesignDay
8,9660746.050712965
1728,1310043.1717517846
2,1, 8,21, 0,12,20.00,30.00,SummerDesignDay
8,9660746.050712965
1728,1310043.1717517846
2,1, 8,21, 0,12,30.00,40.00,SummerDesignDay
8,9660746.050712965
1728,1310043.1717517846
2,1, 8,21, 0,12,40.00,50.00,SummerDesignDay
8,9660746.050712965
1728,1310043.1717517846
2,1, 8,21, 0,12,50.00,60.00,SummerDesignDay
8,9660746.050712965
1728,1310043.1717517846
2,1, 8,21, 0,13, 0.00,10.00,SummerDesignDay
8,9660746.050712965
1728,588305.5250410449
2,1, 8,21, 0,13,10.00,20.00,SummerDesignDay
8,9660746.050712965
1728,194084.2102690812
2,1, 8,21, 0,13,20.00,30.00,SummerDesignDay
8,9660746.050712965
1728,1310043.1717517846
2,1, 8,21, 0,13,30.00,40.00,SummerDesignDay
8,9660746.050712965
1728,1310043.1717517846
2,1, 8,21, 0,13,40.00,50.00,SummerDesignDay
8,9660746.050712965
1728,1310043.1717517846
2,1, 8,21, 0,13,50.00,60.00,SummerDesignDay
8,9660746.050712965
1728,1310043.1717517846
2,1, 8,21, 0,14, 0.00,10.00,SummerDesignDay
8,9660746.050712965
1728,1310043.1717517846
2,1, 8,21, 0,14,10.00,20.00,SummerDesignDay
8,9660746.050712965
1728,1310043.1717517846
2,1, 8,21, 0,14,20.00,30.00,SummerDesignDay
8,9660746.050712965
1728,1310043.1717517846
2,1, 8,21, 0,14,30.00,40.00,SummerDesignDay
8,9660746.050712965
1728,1310043.1717517846
2,1, 8,21, 0,14,40.00,50.00,SummerDesignDay
8,9660746.050712965
1728,600977.9822409728
2,1, 8,21, 0,14,50.00,60.00,SummerDesignDay
8,9660746.050712965
1728,128131.79076672485
2,1, 8,21, 0,15, 0.00,10.00,SummerDesignDay
8,9660746.050712965
1728,1310043.1717517846
2,1, 8,21, 0,15,10.00,20.00,SummerDesignDay
8,9660746.050712965
1728,1310043.1717517846
2,1, 8,21, 0,15,20.00,30.00,SummerDesignDay
8,9660746.050712965
1728,1310043.1717517846
2,1, 8,21, 0,15,30.00,40.00,SummerDesignDay
8,10915439.336999804
1728,1310043.1717517846
2,1, 8,21, 0,15,40.00,50.00,SummerDesignDay
8,9660746.050712965
1728,314981.675858304
2,1, 8,21, 0,15,50.00,60.00,SummerDesignDay
8,9660746.050712965
1728,63079.24665545792
2,1, 8,21, 0,16, 0.00,10.00,SummerDesignDay
8,9660746.050712965
1728,1310043.1717517846
2,1, 8,21, 0,16,10.00,20.00,SummerDesignDay
8,9660746.050712965
1728,1310043.1717517846
2,1, 8,21, 0,16,20.00,30.00,SummerDesignDay
8,9660746.050712965
1728,1310043.1717517846
2,1, 8,21, 0,16,30.00,40.00,SummerDesignDay
8,9660746.050712965
1728,1310043.1717517846
2,1, 8,21, 0,16,40.00,50.00,SummerDesignDay
8,9660746.050712965
1728,270008.02576180163
2,1, 8,21, 0,16,50.00,60.00,SummerDesignDay
8,9660746.050712965
1728,108574.52437659774
2,1, 8,21, 0,17, 0.00,10.00,SummerDesignDay
8,9660746.050712965
1728,1310043.1717517846
2,1, 8,21, 0,17,10.00,20.00,SummerDesignDay
8,9660746.050712965
1728,1310043.1717517846
2,1, 8,21, 0,17,20.00,30.00,SummerDesignDay
8,9660746.050712965
1728,1310043.1717517846
2,1, 8,21, 0,17,30.00,40.00,SummerDesignDay
8,9660746.050712965
1728,1310043.1717517846
2,1, 8,21, 0,17,40.00,50.00,SummerDesignDay
8,9660746.050712965
1728,1310043.1717517846
2,1, 8,21, 0,17,50.00,60.00,SummerDesignDay
8,9660746.050712965
1728,521483.9551906403
2,1, 8,21, 0,18, 0.00,10.00,SummerDesignDay
8,9660746.050712965
1728,0.0
2,1, 8,21, 0,18,10.00,20.00,SummerDesignDay
8,9660746.050712965
1728,1124121.617496667
2,1, 8,21, 0,18,20.00,30.00,SummerDesignDay
8,9660746.050712965
1728,1310043.1717517846
2,1, 8,21, 0,18,30.00,40.00,SummerDesignDay
8,9660746.050712965
1728,1310043.1717517846
2,1, 8,21, 0,18,40.00,50.00,SummerDesignDay
8,9660746.050712965
1728,783462.5101848295
2,1, 8,21, 0,18,50.00,60.00,SummerDesignDay
8,9660746.050712965
1728,0.0
2,1, 8,21, 0,19, 0.00,10.00,SummerDesignDay
8,9660746.050712965
1728,675343.6470645
2,1, 8,21, 0,19,10.00,20.00,SummerDesignDay
8,9660746.050712965
1728,1310043.1717517846
2,1, 8,21, 0,19,20.00,30.00,SummerDesignDay
8,9660746.050712965
1728,1310043.1717517846
2,1, 8,21, 0,19,30.00,40.00,SummerDesignDay
8,9660746.050712965
1728,1233345.8726156529
2,1, 8,21, 0,19,40.00,50.00,SummerDesignDay
8,9660746.050712965
1728,0.0
2,1, 8,21, 0,19,50.00,60.00,SummerDesignDay
8,9660746.050712965
1728,226236.50926337743
2,1, 8,21, 0,20, 0.00,10.00,SummerDesignDay
8,9660746.050712965
1728,1310043.1717517846
2,1, 8,21, 0,20,10.00,20.00,SummerDesignDay
8,9660746.050712965
1728,1310043.1717517846
2,1, 8,21, 0,20,20.00,30.00,SummerDesignDay
8,9660746.050712965
1728,992679.7485872314
2,1, 8,21, 0,20,30.00,40.00,SummerDesignDay
8,10915462.690486027
1728,0.0
2,1, 8,21, 0,20,40.00,50.00,SummerDesignDay
8,9660746.050712965
1728,167867.43343031607
2,1, 8,21, 0,20,50.00,60.00,SummerDesignDay
8,9660746.050712965
1728,1310043.1717517846
2,1, 8,21, 0,21, 0.00,10.00,SummerDesignDay
8,9660746.050712965
1728,1310043.1717517846
2,1, 8,21, 0,21,10.00,20.00,SummerDesignDay
8,9660746.050712965
1728,1181232.4385631175
2,1, 8,21, 0,21,20.00,30.00,SummerDesignDay
8,9660746.050712965
1728,0.0
2,1, 8,21, 0,21,30.00,40.00,SummerDesignDay
8,10207946.050712964
1728,129676.3121255371
2,1, 8,21, 0,21,40.00,50.00,SummerDesignDay
8,10207946.050712964
1728,1310043.1717517846
2,1, 8,21, 0,21,50.00,60.00,SummerDesignDay
8,10207946.050712964
1728,1310043.1717517846
2,1, 8,21, 0,22, 0.00,10.00,SummerDesignDay
8,10207946.050712964
1728,1169344.2112326804
2,1, 8,21, 0,22,10.00,20.00,SummerDesignDay
8,10207946.050712964
1728,0.0
2,1, 8,21, 0,22,20.00,30.00,SummerDesignDay
8,10207946.050712964
1728,0.0
2,1, 8,21, 0,22,30.00,40.00,SummerDesignDay
8,10207946.050712964
1728,1135115.6705940838
2,1, 8,21, 0,22,40.00,50.00,SummerDesignDay
8,10207946.050712964
1728,1310043.1717517846
2,1, 8,21, 0,22,50.00,60.00,SummerDesignDay
8,10207946.050712964
1728,1062483.462286067
2,1, 8,21, 0,23, 0.00,10.00,SummerDesignDay
8,10207500.036836203
1728,0.0
2,1, 8,21, 0,23,10.00,20.00,SummerDesignDay
8,10207500.036836203
1728,0.0
2,1, 8,21, 0,23,20.00,30.00,SummerDesignDay
8,10207500.036836203
1728,0.0
2,1, 8,21, 0,23,30.00,40.00,SummerDesignDay
8,10207500.036836203
1728,0.0
2,1, 8,21, 0,23,40.00,50.00,SummerDesignDay
8,10207500.036836203
1728,0.0
2,1, 8,21, 0,23,50.00,60.00,SummerDesignDay
8,10207500.036836203
1728,0.0
2,1, 8,21, 0,24, 0.00,10.00,SummerDesignDay
8,10207500.036836203
1728,0.0
2,1, 8,21, 0,24,10.00,20.00,SummerDesignDay
8,10207500.036836203
1728,0.0
2,1, 8,21, 0,24,20.00,30.00,SummerDesignDay
8,10207500.036836203
1728,565569.726432351
2,1, 8,21, 0,24,30.00,40.00,SummerDesignDay
8,10207500.036836203
1728,1272580.8309860544
2,1, 8,21, 0,24,40.00,50.00,SummerDesignDay
8,10207500.036836203
1728,0.0
2,1, 8,21, 0,24,50.00,60.00,SummerDesignDay
8,10207500.036836203
1728,0.0
1,KODIAK ANN CLG .4% CONDNS WB=>MDB HVAC Sizing Pass 1,  57.75,-152.49,  -9.00,  34.00
2,1, 8,21, 0, 1, 0.00,10.00,SummerDesignDay
8,10022046.036836203
1728,0.0
2,1, 8,21, 0, 1,10.00,20.00,SummerDesignDay
8,10022046.036836203
1728,0.0
2,1, 8,21, 0, 1,20.00,30.00,SummerDesignDay
8,10022046.036836203
1728,0.0
2,1, 8,21, 0, 1,30.00,40.00,SummerDesignDay
8,10022046.036836203
1728,0.0
2,1, 8,21, 0, 1,40.00,50.00,SummerDesignDay
8,10022046.036836203
1728,0.0
2,1, 8,21, 0, 1,50.00,60.00,SummerDesignDay
8,10022046.036836203
1728,0.0
2,1, 8,21, 0, 2, 0.00,10.00,SummerDesignDay
8,10022046.036836203
1728,0.0
2,1, 8,21, 0, 2,10.00,20.00,SummerDesignDay
8,10022046.036836203
1728,0.0
2,1, 8,21, 0, 2,20.00,30.00,SummerDesignDay
8,10022046.036836203
1728,0.0
2,1, 8,21, 0, 2,30.00,40.00,SummerDesignDay
8,10022046.036836203
1728,837627.2990599785
2,1, 8,21, 0, 2,40.00,50.00,SummerDesignDay
8,10022046.036836203
1728,1000471.8691032372
2,1, 8,21, 0, 2,50.00,60.00,SummerDesignDay
8,10022046.036836203
1728,0.0
2,1, 8,21, 0, 3, 0.00,10.00,SummerDesignDay
8,10022046.036836203
1728,0.0
2,1, 8,21, 0, 3,10.00,20.00,SummerDesignDay
8,10022046.036836203
1728,0.0
2,1, 8,21, 0, 3,20.00,30.00,SummerDesignDay
8,10022046.036836203
1728,0.0
2,1, 8,21, 0, 3,30.00,40.00,SummerDesignDay
8,10022046.036836203
1728,0.0
2,1, 8,21, 0, 3,40.00,50.00,SummerDesignDay
8,10022046.036836203
1728,0.0
2,1, 8,21, 0, 3,50.00,60.00,SummerDesignDay
8,10022046.036836203
1728,0.0
2,1, 8,21, 0, 4, 0.00,10.00,SummerDesignDay
8,10022046.036836203
1728,0.0
2,1, 8,21, 0, 4,10.00,20.00,SummerDesignDay
8,10022046.036836203
1728,0.0
2,1, 8,21, 0, 4,20.00,30.00,SummerDesignDay
8,10022046.036836203
1728,1147055.893217417
2,1, 8,21, 0, 4,30.00,40.00,SummerDesignDay
8,10022046.036836203
1728,691077.5325942107
2,1, 8,21, 0, 4,40.00,50.00,SummerDesignDay
8,10022046.036836203
1728,0.0
2,1, 8,21, 0, 4,50.00,60.00,SummerDesignDay
8,10022046.036836203
1728,0.0
2,1, 8,21, 0, 5, 0.00,10.00,SummerDesignDay
8,10022046.036836203
1728,0.0
2,1, 8,21, 0, 5,10.00,20.00,SummerDesignDay
8,10022046.036836203
1728,0.0
2,1, 8,21, 0, 5,20.00,30.00,SummerDesignDay
8,10022046.036836203
1728,0.0
2,1, 8,21, 0, 5,30.00,40.00,SummerDesignDay
8,10022046.036836203
1728,0.0
2,1, 8,21, 0, 5,40.00,50.00,SummerDesignDay
8,10022046.036836203
1728,0.0
2,1, 8,21, 0, 5,50.00,60.00,SummerDesignDay
8,11276762.46350168
1728,0.0
2,1, 8,21, 0, 6, 0.00,10.00,SummerDesignDay
8,10022046.036836203
1728,146350.6524753382
2,1, 8,21, 0, 6,10.00,20.00,SummerDesignDay
8,10022046.036836203
1728,1310043.1717517846
2,1, 8,21, 0, 6,20.00,30.00,SummerDesignDay
8,10022046.036836203
1728,381760.85827474657
2,1, 8,21, 0, 6,30.00,40.00,SummerDesignDay
8,10022046.036836203
1728,0.0
2,1, 8,21, 0, 6,40.00,50.00,SummerDesignDay
8,10022046.036836203
1728,0.0
2,1, 8,21, 0, 6,50.00,60.00,SummerDesignDay
8,9660300.036836205
1728,0.0
2,1, 8,21, 0, 7, 0.00,10.00,SummerDesignDay
8,9660300.036836205
1728,0.0
2,1, 8,21, 0, 7,10.00,20.00,SummerDesignDay
8,9660300.036836205
1728,0.0
2,1, 8,21, 0, 7,20.00,30.00,SummerDesignDay
8,9660300.036836205
1728,0.0
2,1, 8,21, 0, 7,30.00,40.00,SummerDesignDay
8,9660300.036836205
1728,0.0
2,1, 8,21, 0, 7,40.00,50.00,SummerDesignDay
8,9660300.036836205
1728,0.0
2,1, 8,21, 0, 7,50.00,60.00,SummerDesignDay
8,9660300.036836205
1728,455695.6152803254
2,1, 8,21, 0, 8, 0.00,10.00,SummerDesignDay
8,9660746.050712965
1728,1310043.1717517846
2,1, 8,21, 0, 8,10.00,20.00,SummerDesignDay
8,9660746.050712965
1728,1310043.1717517846
2,1, 8,21, 0, 8,20.00,30.00,SummerDesignDay
8,9660746.050712965
1728,1310043.1717517846
2,1, 8,21, 0, 8,30.00,40.00,SummerDesignDay
8,9660746.050712965
1728,450726.4357157144
2,1, 8,21, 0, 8,40.00,50.00,SummerDesignDay
8,9660746.050712965
1728,0.0
2,1, 8,21, 0, 8,50.00,60.00,SummerDesignDay
8,9660746.050712965
1728,1180223.605100236
2,1, 8,21, 0, 9, 0.00,10.00,SummerDesignDay
8,9660746.050712965
1728,1310043.1717517846
2,1, 8,21, 0, 9,10.00,20.00,SummerDesignDay
8,9660746.050712965
1728,1310043.1717517846
2,1, 8,21, 0, 9,20.00,30.00,SummerDesignDay
8,9660746.050712965
1728,1310043.1717517846
2,1, 8,21, 0, 9,30.00,40.00,SummerDesignDay
8,9660746.050712965
1728,516313.07401402737
2,1, 8,21, 0, 9,40.00,50.00,SummerDesignDay
8,9660746.050712965
1728,0.0
2,1, 8,21, 0, 9,50.00,60.00,SummerDesignDay
8,9660746.050712965
1728,1186076.061043074
2,1, 8,21, 0,10, 0.00,10.00,SummerDesignDay
8,9660746.050712965
1728,1310043.1717517846
2,1, 8,21, 0,10,10.00,20.00,SummerDesignDay
8,9660746.050712965
1728,1310043.1717517846
2,1, 8,21, 0,10,20.00,30.00,SummerDesignDay
8,9660746.050712965
1728,1310043.1717517846
2,1, 8,21, 0,10,30.00,40.00,SummerDesignDay
8,9660746.050712965
1728,1037579.9064915419
2,1, 8,21, 0,10,40.00,50.00,SummerDesignDay
8,10915450.90469806
1728,0.0
2,1, 8,21, 0,10,50.00,60.00,SummerDesignDay
8,9660746.050712965
1728,750390.3577581543
2,1, 8,21, 0,11, 0.00,10.00,SummerDesignDay
8,9660746.050712965
1728,1310043.1717517846
2,1, 8,21, 0,11,10.00,20.00,SummerDesignDay
8,9660746.050712965
1728,1310043.1717517846
2,1, 8,21, 0,11,20.00,30.00,SummerDesignDay
8,9660746.050712965
1728,1310043.1717517846
2,1, 8,21, 0,11,30.00,40.00,SummerDesignDay
8,9660746.050712965
1728,1310043.1717517846
2,1, 8,21, 0,11,40.00,50.00,SummerDesignDay
8,9660746.050712965
1728,310458.46741999144
2,1, 8,21, 0,11,50.00,60.00,SummerDesignDay
8,9660746.050712965
1728,167434.56056671785
2,1, 8,21, 0,12, 0.00,10.00,SummerDesignDay
8,9660746.050712965
1728,1310043.1717517846
2,1, 8,21, 0,12,10.00,20.00,SummerDesignDay
8,9660746.050712965
1728,1310043.1717517846
2,1, 8,21, 0,12,20.00,30.00,SummerDesignDay
8,9660746.050712965
1728,1310043.1717517846
2,1, 8,21, 0,12,30.00,40.00,SummerDesignDay
8,9660746.050712965
1728,1310043.1717517846
2,1, 8,21, 0,12,40.00,50.00,SummerDesignDay
8,9660746.050712965
1728,1310043.1717517846
2,1, 8,21, 0,12,50.00,60.00,SummerDesignDay
8,9660746.050712965
1728,1310043.1717517846
2,1, 8,21, 0,13, 0.00,10.00,SummerDesignDay
8,9660746.050712965
1728,588305.5250410449
2,1, 8,21, 0,13,10.00,20.00,SummerDesignDay
8,9660746.050712965
1728,194084.2102690812
2,1, 8,21, 0,13,20.00,30.00,SummerDesignDay
8,9660746.050712965
1728,1310043.1717517846
2,1, 8,21, 0,13,30.00,40.00,SummerDesignDay
8,9660746.050712965
1728,1310043.1717517846
2,1, 8,21, 0,13,40.00,50.00,SummerDesignDay
8,9660746.050712965
1728,1310043.1717517846
2,1, 8,21, 0,13,50.00,60.00,SummerDesignDay
8,9660746.050712965
1728,1310043.1717517846
2,1, 8,21, 0,14, 0.00,10.00,SummerDesignDay
8,9660746.050712965
1728,1310043.1717517846
2,1, 8,21, 0,14,10.00,20.00,SummerDesignDay
8,9660746.050712965
1728,1310043.1717517846
2,1, 8,21, 0,14,20.00,30.00,SummerDesignDay
8,9660746.050712965
1728,1310043.1717517846
2,1, 8,21, 0,14,30.00,40.00,SummerDesignDay
8,9660746.050712965
1728,1310043.1717517846
2,1, 8,21, 0,14,40.00,50.00,SummerDesignDay
8,9660746.050712965
1728,600977.9822409728
2,1, 8,21, 0,14,50.00,60.00,SummerDesignDay
8,9660746.050712965
1728,128131.79076672485
2,1, 8,21, 0,15, 0.00,10.00,SummerDesignDay
8,9660746.050712965
1728,1310043.1717517846
2,1, 8,21, 0,15,10.00,20.00,SummerDesignDay
8,9660746.050712965
1728,1310043.1717517846
2,1, 8,21, 0,15,20.00,30.00,SummerDesignDay
8,9660746.050712965
1728,1310043.1717517846
2,1, 8,21, 0,15,30.00,40.00,SummerDesignDay
8,10915439.336999804
1728,1310043.1717517846
2,1, 8,21, 0,15,40.00,50.00,SummerDesignDay
8,9660746.050712965
1728,314981.675858304
2,1, 8,21, 0,15,50.00,60.00,SummerDesignDay
8,9660746.050712965
1728,63079.24665545792
2,1, 8,21, 0,16, 0.00,10.00,SummerDesignDay
8,9660746.050712965
1728,1310043.1717517846
2,1, 8,21, 0,16,10.00,20.00,SummerDesignDay
8,9660746.050712965
1728,1310043.1717517846
2,1, 8,21, 0,16,20.00,30.00,SummerDesignDay
8,9660746.050712965
1728,1310043.1717517846
2,1, 8,21, 0,16,30.00,40.00,SummerDesignDay
8,9660746.050712965
1728,1310043.1717517846
2,1, 8,21, 0,16,40.00,50.00,SummerDesignDay
8,9660746.050712965
1728,270008.02576180163
2,1, 8,21, 0,16,50.00,60.00,SummerDesignDay
8,9660746.050712965
1728,108574.52437659774
2,1, 8,21, 0,17, 0.00,10.00,SummerDesignDay
8,9660746.050712965
1728,1310043.1717517846
2,1, 8,21, 0,17,10.00,20.00,SummerDesignDay
8,9660746.050712965
1728,1310043.1717517846
2,1, 8,21, 0,17,20.00,30.00,SummerDesignDay
8,9660746.050712965
1728,1310043.1717517846
2,1, 8,21, 0,17,30.00,40.00,SummerDesignDay
8,9660746.050712965
1728,1310043.1717517846
2,1, 8,21, 0,17,40.00,50.00,SummerDesignDay
8,9660746.050712965
1728,1310043.1717517846
2,1, 8,21, 0,17,50.00,60.00,SummerDesignDay
8,9660746.050712965
1728,521483.9551906403
2,1, 8,21, 0,18, 0.00,10.00,SummerDesignDay
8,9660746.050712965
1728,0.0
2,1, 8,21, 0,18,10.00,20.00,SummerDesignDay
8,9660746.050712965
1728,1124121.617496667
2,1, 8,21, 0,18,20.00,30.00,SummerDesignDay
8,9660746.050712965
1728,1310043.1717517846
2,1, 8,21, 0,18,30.00,40.00,SummerDesignDay
8,9660746.050712965
1728,1310043.1717517846
2,1, 8,21, 0,18,40.00,50.00,SummerDesignDay
8,9660746.050712965
1728,783462.5101848295
2,1, 8,21, 0,18,50.00,60.00,SummerDesignDay
8,9660746.050712965
1728,0.0
2,1, 8,21, 0,19, 0.00,10.00,SummerDesignDay
8,9660746.050712965
1728,675343.6470645
2,1, 8,21, 0,19,10.00,20.00,SummerDesignDay
8,9660746.050712965
1728,1310043.1717517846
2,1, 8,21, 0,19,20.00,30.00,SummerDesignDay
8,9660746.050712965
1728,1310043.1717517846
2,1, 8,21, 0,19,30.00,40.00,SummerDesignDay
8,9660746.050712965
1728,1233345.8726156529
2,1, 8,21, 0,19,40.00,50.00,SummerDesignDay
8,9660746.050712965
1728,0.0
2,1, 8,21, 0,19,50.00,60.00,SummerDesignDay
8,9660746.050712965
1728,226236.50926337743
2,1, 8,21, 0,20, 0.00,10.00,SummerDesignDay
8,9660746.050712965
1728,1310043.1717517846
2,1, 8,21, 0,20,10.00,20.00,SummerDesignDay
8,9660746.050712965
1728,1310043.1717517846
2,1, 8,21, 0,20,20.00,30.00,SummerDesignDay
8,9660746.050712965
1728,992679.7485872314
2,1, 8,21, 0,20,30.00,40.00,SummerDesignDay
8,10915462.690486027
1728,0.0
2,1, 8,21, 0,20,40.00,50.00,SummerDesignDay
8,9660746.050712965
1728,167867.43343031607
2,1, 8,21, 0,20,50.00,60.00,SummerDesignDay
8,9660746.050712965
1728,1310043.1717517846
2,1, 8,21, 0,21, 0.00,10.00,SummerDesignDay
8,9660746.050712965
1728,1310043.1717517846
2,1, 8,21, 0,21,10.00,20.00,SummerDesignDay
8,9660746.050712965
1728,1181232.4385631175
2,1, 8,21, 0,21,20.00,30.00,SummerDesignDay
8,9660746.050712965
1728,0.0
2,1, 8,21, 0,21,30.00,40.00,SummerDesignDay
8,10207946.050712964
1728,129676.3121255371
2,1, 8,21, 0,21,40.00,50.00,SummerDesignDay
8,10207946.050712964
1728,1310043.1717517846
2,1, 8,21, 0,21,50.00,60.00,SummerDesignDay
8,10207946.050712964
1728,1310043.1717517846
2,1, 8,21, 0,22, 0.00,10.00,SummerDesignDay
8,10207946.050712964
1728,1169344.2112326804
2,1, 8,21, 0,22,10.00,20.00,SummerDesignDay
8,10207946.050712964
1728,0.0
2,1, 8,21, 0,22,20.00,30.00,SummerDesignDay
8,10207946.050712964
1728,0.0
2,1, 8,21, 0,22,30.00,40.00,SummerDesignDay
8,10207946.050712964
1728,1135115.6705940838
2,1, 8,21, 0,22,40.00,50.00,SummerDesignDay
8,10207946.050712964
1728,1310043.1717517846
2,1, 8,21, 0,22,50.00,60.00,SummerDesignDay
8,10207946.050712964
1728,1062483.462286067
2,1, 8,21, 0,23, 0.00,10.00,SummerDesignDay
8,10207500.036836203
1728,0.0
2,1, 8,21, 0,23,10.00,20.00,SummerDesignDay
8,10207500.036836203
1728,0.0
2,1, 8,21, 0,23,20.00,30.00,SummerDesignDay
8,10207500.036836203
1728,0.0
2,1, 8,21, 0,23,30.00,40.00,SummerDesignDay
8,10207500.036836203
1728,0.0
2,1, 8,21, 0,23,40.00,50.00,SummerDesignDay
8,10207500.036836203
1728,0.0
2,1, 8,21, 0,23,50.00,60.00,SummerDesignDay
8,10207500.036836203
1728,0.0
2,1, 8,21, 0,24, 0.00,10.00,SummerDesignDay
8,10207500.036836203
1728,0.0
2,1, 8,21, 0,24,10.00,20.00,SummerDesignDay
8,10207500.036836203
1728,0.0
2,1, 8,21, 0,24,20.00,30.00,SummerDesignDay
8,10207500.036836203
1728,565569.726432351
2,1, 8,21, 0,24,30.00,40.00,SummerDesignDay
8,10207500.036836203
1728,1272580.8309860544
2,1, 8,21, 0,24,40.00,50.00,SummerDesignDay
8,10207500.036836203
1728,0.0
2,1, 8,21, 0,24,50.00,60.00,SummerDesignDay
8,10207500.036836203
1728,0.0
1,KODIAK ANN HTG 99.6% CONDNS DB HVAC Sizing Pass 1,  57.75,-152.49,  -9.00,  34.00
2,1, 1,21, 0, 1, 0.00,10.00,WinterDesignDay
8,704346.0368362104
1728,0.0
2,1, 1,21, 0, 1,10.00,20.00,WinterDesignDay
8,704346.0368362104
1728,0.0
2,1, 1,21, 0, 1,20.00,30.00,WinterDesignDay
8,704346.0368362104
1728,0.0
2,1, 1,21, 0, 1,30.00,40.00,WinterDesignDay
8,704346.0368362104
1728,0.0
2,1, 1,21, 0, 1,40.00,50.00,WinterDesignDay
8,704346.0368362104
1728,0.0
2,1, 1,21, 0, 1,50.00,60.00,WinterDesignDay
8,704346.0368362104
1728,0.0
2,1, 1,21, 0, 2, 0.00,10.00,WinterDesignDay
8,704346.0368362104
1728,0.0
2,1, 1,21, 0, 2,10.00,20.00,WinterDesignDay
8,704346.0368362104
1728,0.0
2,1, 1,21, 0, 2,20.00,30.00,WinterDesignDay
8,704346.0368362104
1728,0.0
2,1, 1,21, 0, 2,30.00,40.00,WinterDesignDay
8,704346.0368362104
1728,837627.2990599785
2,1, 1,21, 0, 2,40.00,50.00,WinterDesignDay
8,704346.0368362104
1728,1000471.8691032372
2,1, 1,21, 0, 2,50.00,60.00,WinterDesignDay
8,704346.0368362104
1728,0.0
2,1, 1,21, 0, 3, 0.00,10.00,WinterDesignDay
8,704346.0368362104
1728,0.0
2,1, 1,21, 0, 3,10.00,20.00,WinterDesignDay
8,704346.0368362104
1728,0.0
2,1, 1,21, 0, 3,20.00,30.00,WinterDesignDay
8,704346.0368362104
1728,0.0
2,1, 1,21, 0, 3,30.00,40.00,WinterDesignDay
8,704346.0368362104
1728,0.0
2,1, 1,21, 0, 3,40.00,50.00,WinterDesignDay
8,704346.0368362104
1728,0.0
2,1, 1,21, 0, 3,50.00,60.00,WinterDesignDay
8,704346.0368362104
1728,0.0
2,1, 1,21, 0, 4, 0.00,10.00,WinterDesignDay
8,704346.0368362104
1728,0.0
2,1, 1,21, 0, 4,10.00,20.00,WinterDesignDay
8,704346.0368362104
1728,0.0
2,1, 1,21, 0, 4,20.00,30.00,WinterDesignDay
8,704346.0368362104
1728,1147055.893217417
2,1, 1,21, 0, 4,30.00,40.00,WinterDesignDay
8,704346.0368362104
1728,691077.5325942107
2,1, 1,21, 0, 4,40.00,50.00,WinterDesignDay
8,704346.0368362104
1728,0.0
2,1, 1,21, 0, 4,50.00,60.00,WinterDesignDay
8,704346.0368362104
1728,0.0
2,1, 1,21, 0, 5, 0.00,10.00,WinterDesignDay
8,704346.0368362104
1728,0.0
2,1, 1,21, 0, 5,10.00,20.00,WinterDesignDay
8,704346.0368362104
1728,0.0
2,1, 1,21, 0, 5,20.00,30.00,WinterDesignDay
8,704346.0368362104
1728,0.0
2,1, 1,21, 0, 5,30.00,40.00,WinterDesignDay
8,704346.0368362104
1728,0.0
2,1, 1,21, 0, 5,40.00,50.00,WinterDesignDay
8,704346.0368362104
1728,0.0
2,1, 1,21, 0, 5,50.00,60.00,WinterDesignDay
8,1959062.4635016874
1728,0.0
2,1, 1,21, 0, 6, 0.00,10.00,WinterDesignDay
8,704346.0368362104
1728,146350.64895523535
2,1, 1,21, 0, 6,10.00,20.00,WinterDesignDay
8,704346.0368362104
1728,1310043.1717517846
2,1, 1,21, 0, 6,20.00,30.00,WinterDesignDay
8,704346.0368362104
1728,381760.8617960613
2,1, 1,21, 0, 6,30.00,40.00,WinterDesignDay
8,704346.0368362104
1728,0.0
2,1, 1,21, 0, 6,40.00,50.00,WinterDesignDay
8,704346.0368362104
1728,0.0
2,1, 1,21, 0, 6,50.00,60.00,WinterDesignDay
8,704346.0368362104
1728,0.0
2,1, 1,21, 0, 7, 0.00,10.00,WinterDesignDay
8,889800.0368362104
1728,0.0
2,1, 1,21, 0, 7,10.00,20.00,WinterDesignDay
8,889800.0368362104
1728,0.0
2,1, 1,21, 0, 7,20.00,30.00,WinterDesignDay
8,889800.0368362104
1728,0.0
2,1, 1,21, 0, 7,30.00,40.00,WinterDesignDay
8,889800.0368362104
1728,0.0
2,1, 1,21, 0, 7,40.00,50.00,WinterDesignDay
8,889800.0368362104
1728,0.0
2,1, 1,21, 0, 7,50.00,60.00,WinterDesignDay
8,889800.0368362104
1728,455695.6117584876
2,1, 1,21, 0, 8, 0.00,10.00,WinterDesignDay
8,890246.0507129717
1728,1310043.1717517846
2,1, 1,21, 0, 8,10.00,20.00,WinterDesignDay
8,890246.0507129717
1728,1310043.1717517846
2,1, 1,21, 0, 8,20.00,30.00,WinterDesignDay
8,890246.0507129717
1728,1310043.1717517846
2,1, 1,21, 0, 8,30.00,40.00,WinterDesignDay
8,890246.0507129717
1728,842745.6722366927
2,1, 1,21, 0, 8,40.00,50.00,WinterDesignDay
8,890246.0507129717
1728,0.0
2,1, 1,21, 0, 8,50.00,60.00,WinterDesignDay
8,890246.0507129717
1728,846608.2079995238
2,1, 1,21, 0, 9, 0.00,10.00,WinterDesignDay
8,890246.0507129717
1728,1310043.1717517846
2,1, 1,21, 0, 9,10.00,20.00,WinterDesignDay
8,890246.0507129717
1728,1310043.1717517846
2,1, 1,21, 0, 9,20.00,30.00,WinterDesignDay
8,890246.0507129717
1728,1310043.1717517846
2,1, 1,21, 0, 9,30.00,40.00,WinterDesignDay
8,890246.0507129717
1728,1310043.1717517846
2,1, 1,21, 0, 9,40.00,50.00,WinterDesignDay
8,890246.0507129717
1728,694636.9181731517
2,1, 1,21, 0, 9,50.00,60.00,WinterDesignDay
8,890246.0507129717
1728,0.0
2,1, 1,21, 0,10, 0.00,10.00,WinterDesignDay
8,890246.0507129717
1728,1152545.220499428
2,1, 1,21, 0,10,10.00,20.00,WinterDesignDay
8,890246.0507129717
1728,1310043.1717517846
2,1, 1,21, 0,10,20.00,30.00,WinterDesignDay
8,890246.0507129717
1728,1310043.1717517846
2,1, 1,21, 0,10,30.00,40.00,WinterDesignDay
8,890246.0507129717
1728,1310043.1717517846
2,1, 1,21, 0,10,40.00,50.00,WinterDesignDay
8,1597750.9046980678
1728,1310043.1717517846
2,1, 1,21, 0,10,50.00,60.00,WinterDesignDay
8,343046.0507129716
1728,1310043.1717517846
2,1, 1,21, 0,11, 0.00,10.00,WinterDesignDay
8,343046.0507129716
1728,422270.57867735287
2,1, 1,21, 0,11,10.00,20.00,WinterDesignDay
8,343046.0507129716
1728,208127.15628051135
2,1, 1,21, 0,11,20.00,30.00,WinterDesignDay
8,343046.0507129716
1728,1310043.1717517846
2,1, 1,21, 0,11,30.00,40.00,WinterDesignDay
8,343046.0507129716
1728,1310043.1717517846
2,1, 1,21, 0,11,40.00,50.00,WinterDesignDay
8,343046.0507129716
1728,1310043.1717517846