Program Version,EnergyPlus, Version 22.2.0-aa78da9668, YMD=2023.04.20 10:14
1,5,Environment Title[],Latitude[deg],Longitude[deg],Time Zone[],Elevation[m]
2,8,Day of Simulation[],Month[],Day of Month[],DST Indicator[1=yes 0=no],Hour[],StartMinute[],EndMinute[],DayType
3,5,Cumulative Day of Simulation[],Month[],Day of Month[],DST Indicator[1=yes 0=no],DayType  ! When Daily Report Variables Requested
4,2,Cumulative Days of Simulation[],Month[]  ! When Monthly Report Variables Requested
5,1,Cumulative Days of Simulation[] ! When Run Period Report Variables Requested
6,1,Calendar Year of Simulation[] ! When Annual Report Variables Requested
8,1,Electricity:Facility [J] !TimeStep
End of Data Dictionary
1,KODIAK ANN CLG .4% CONDNS DB=>MWB HVAC Sizing Pass 1,  57.75,-152.49,  -9.00,  34.00
2,1, 8,21, 0, 1, 0.00,10.00,SummerDesignDay
8,1389068.1421401324
2,1, 8,21, 0, 1,10.00,20.00,SummerDesignDay
8,1389068.1421401324
2,1, 8,21, 0, 1,20.00,30.00,SummerDesignDay
8,1389068.1421401324
2,1, 8,21, 0, 1,30.00,40.00,SummerDesignDay
8,1389068.1421401324
2,1, 8,21, 0, 1,40.00,50.00,SummerDesignDay
8,1389068.1421401324
2,1, 8,21, 0, 1,50.00,60.00,SummerDesignDay
8,1389068.1421401324
2,1, 8,21, 0, 2, 0.00,10.00,SummerDesignDay
8,1389068.1421401324
2,1, 8,21, 0, 2,10.00,20.00,SummerDesignDay
8,1389068.1421401324
2,1, 8,21, 0, 2,20.00,30.00,SummerDesignDay
8,1389068.1421401324
2,1, 8,21, 0, 2,30.00,40.00,SummerDesignDay
8,1389068.1421401324
2,1, 8,21, 0, 2,40.00,50.00,SummerDesignDay
8,1389068.1421401324
2,1, 8,21, 0, 2,50.00,60.00,SummerDesignDay
8,1389068.1421401324
2,1, 8,21, 0, 3, 0.00,10.00,SummerDesignDay
8,1389068.1421401324
2,1, 8,21, 0, 3,10.00,20.00,SummerDesignDay
8,1389068.1421401324
2,1, 8,21, 0, 3,20.00,30.00,SummerDesignDay
8,1389068.1421401324
2,1, 8,21, 0, 3,30.00,40.00,SummerDesignDay
8,1389068.1421401324
2,1, 8,21, 0, 3,40.00,50.00,SummerDesignDay
8,1389068.1421401324
2,1, 8,21, 0, 3,50.00,60.00,SummerDesignDay
8,1389068.1421401324
2,1, 8,21, 0, 4, 0.00,10.00,SummerDesignDay
8,1389068.1421401324
2,1, 8,21, 0, 4,10.00,20.00,SummerDesignDay
8,1389068.1421401324
2,1, 8,21, 0, 4,20.00,30.00,SummerDesignDay
8,1389068.1421401324
2,1, 8,21, 0, 4,30.00,40.00,SummerDesignDay
8,1389068.1421401324
2,1, 8,21, 0, 4,40.00,50.00,SummerDesignDay
8,1389068.1421401324
2,1, 8,21, 0, 4,50.00,60.00,SummerDesignDay
8,1389068.1421401324
2,1, 8,21, 0, 5, 0.00,10.00,SummerDesignDay
8,1389068.1421401324
2,1, 8,21, 0, 5,10.00,20.00,SummerDesignDay
8,1389068.1421401324
2,1, 8,21, 0, 5,20.00,30.00,SummerDesignDay
8,1389068.1421401324
2,1, 8,21, 0, 5,30.00,40.00,SummerDesignDay
8,1389068.1421401324
2,1, 8,21, 0, 5,40.00,50.00,SummerDesignDay
8,1389068.1421401324
2,1, 8,21, 0, 5,50.00,60.00,SummerDesignDay
8,2643784.5688054683
2,1, 8,21, 0, 6, 0.00,10.00,SummerDesignDay
8,1389068.1421401324
2,1, 8,21, 0, 6,10.00,20.00,SummerDesignDay
8,1389068.1421401324
2,1, 8,21, 0, 6,20.00,30.00,SummerDesignDay
8,1389068.1421401324
2,1, 8,21, 0, 6,30.00,40.00,SummerDesignDay
8,1389068.1421401324
2,1, 8,21, 0, 6,40.00,50.00,SummerDesignDay
8,1389068.1421401324
2,1, 8,21, 0, 6,50.00,60.00,SummerDesignDay
8,1027322.1421401324
2,1, 8,21, 0, 7, 0.00,10.00,SummerDesignDay
8,1027322.1421401324
2,1, 8,21, 0, 7,10.00,20.00,SummerDesignDay
8,1027322.1421401324
2,1, 8,21, 0, 7,20.00,30.00,SummerDesignDay
8,1027322.1421401324
2,1, 8,21, 0, 7,30.00,40.00,SummerDesignDay
8,1027322.1421401324
2,1, 8,21, 0, 7,40.00,50.00,SummerDesignDay
8,1027322.1421401324
2,1, 8,21, 0, 7,50.00,60.00,SummerDesignDay
8,1027322.1421401324
2,1, 8,21, 0, 8, 0.00,10.00,SummerDesignDay
8,1027322.1421401324
2,1, 8,21, 0, 8,10.00,20.00,SummerDesignDay
8,1027322.1421401324
2,1, 8,21, 0, 8,20.00,30.00,SummerDesignDay
8,1027322.1421401324
2,1, 8,21, 0, 8,30.00,40.00,SummerDesignDay
8,1027322.1421401324
2,1, 8,21, 0, 8,40.00,50.00,SummerDesignDay
8,1027322.1421401324
2,1, 8,21, 0, 8,50.00,60.00,SummerDesignDay
8,1027322.1421401324
2,1, 8,21, 0, 9, 0.00,10.00,SummerDesignDay
8,1125743.5338657983
2,1, 8,21, 0, 9,10.00,20.00,SummerDesignDay
8,1118914.3737479374
2,1, 8,21, 0, 9,20.00,30.00,SummerDesignDay
8,1130167.5483598423
2,1, 8,21, 0, 9,30.00,40.00,SummerDesignDay
8,1127948.866572459
2,1, 8,21, 0, 9,40.00,50.00,SummerDesignDay
8,1130497.8365550807
2,1, 8,21, 0, 9,50.00,60.00,SummerDesignDay
8,1131939.8109738792
2,1, 8,21, 0,10, 0.00,10.00,SummerDesignDay
8,1133562.729455373
2,1, 8,21, 0,10,10.00,20.00,SummerDesignDay
8,1135193.3714645365
2,1, 8,21, 0,10,20.00,30.00,SummerDesignDay
8,1136696.0912784624
2,1, 8,21, 0,10,30.00,40.00,SummerDesignDay
8,1138096.6710106982
2,1, 8,21, 0,10,40.00,50.00,SummerDesignDay
8,2394437.566194307
2,1, 8,21, 0,10,50.00,60.00,SummerDesignDay
8,1141626.053990176
2,1, 8,21, 0,11, 0.00,10.00,SummerDesignDay
8,1143767.3240923143
2,1, 8,21, 0,11,10.00,20.00,SummerDesignDay
8,1146040.077796903
2,1, 8,21, 0,11,20.00,30.00,SummerDesignDay
8,1148407.1424700764
2,1, 8,21, 0,11,30.00,40.00,SummerDesignDay
8,1150795.1947581782
2,1, 8,21, 0,11,40.00,50.00,SummerDesignDay
8,1153254.253327919
2,1, 8,21, 0,11,50.00,60.00,SummerDesignDay
8,1155730.7983081175
2,1, 8,21, 0,12, 0.00,10.00,SummerDesignDay
8,1158097.095121668
2,1, 8,21, 0,12,10.00,20.00,SummerDesignDay
8,1160429.7243895137
2,1, 8,21, 0,12,20.00,30.00,SummerDesignDay
8,1162700.8197317885
2,1, 8,21, 0,12,30.00,40.00,SummerDesignDay
8,1164898.504731839
2,1, 8,21, 0,12,40.00,50.00,SummerDesignDay
8,1167005.0788280591
2,1, 8,21, 0,12,50.00,60.00,SummerDesignDay
8,1168996.9393235317
2,1, 8,21, 0,13, 0.00,10.00,SummerDesignDay
8,1078778.307392967
2,1, 8,21, 0,13,10.00,20.00,SummerDesignDay
8,1080384.2559400934
2,1, 8,21, 0,13,20.00,30.00,SummerDesignDay
8,1081742.5994452282
2,1, 8,21, 0,13,30.00,40.00,SummerDesignDay
8,1082767.4053897858
2,1, 8,21, 0,13,40.00,50.00,SummerDesignDay
8,1083325.43894887
2,1, 8,21, 0,13,50.00,60.00,SummerDesignDay
8,1083503.1622744258
2,1, 8,21, 0,14, 0.00,10.00,SummerDesignDay
8,1175390.5404004278
2,1, 8,21, 0,14,10.00,20.00,SummerDesignDay
8,1175660.6775017902
2,1, 8,21, 0,14,20.00,30.00,SummerDesignDay
8,1176564.3618176675
2,1, 8,21, 0,14,30.00,40.00,SummerDesignDay
8,1177911.4599365515
2,1, 8,21, 0,14,40.00,50.00,SummerDesignDay
8,1179440.8276865212
2,1, 8,21, 0,14,50.00,60.00,SummerDesignDay
8,1180893.422978924
2,1, 8,21, 0,15, 0.00,10.00,SummerDesignDay
8,1182011.4423464234
2,1, 8,21, 0,15,10.00,20.00,SummerDesignDay
8,1182897.495509645
2,1, 8,21, 0,15,20.00,30.00,SummerDesignDay
8,1183549.3995919959
2,1, 8,21, 0,15,30.00,40.00,SummerDesignDay
8,2438675.706416189
2,1, 8,21, 0,15,40.00,50.00,SummerDesignDay
8,1184202.599394966
2,1, 8,21, 0,15,50.00,60.00,SummerDesignDay
8,1184218.5945320243
2,1, 8,21, 0,16, 0.00,10.00,SummerDesignDay
8,1183873.9458738428
2,1, 8,21, 0,16,10.00,20.00,SummerDesignDay
8,1183338.9188449394
2,1, 8,21, 0,16,20.00,30.00,SummerDesignDay
8,1182621.7277088028
2,1, 8,21, 0,16,30.00,40.00,SummerDesignDay
8,1181736.6443365023
2,1, 8,21, 0,16,40.00,50.00,SummerDesignDay
8,1180753.9956509708
2,1, 8,21, 0,16,50.00,60.00,SummerDesignDay
8,1179571.230152469
2,1, 8,21, 0,17, 0.00,10.00,SummerDesignDay
8,1178192.5195776145
2,1, 8,21, 0,17,10.00,20.00,SummerDesignDay
8,1176682.9192644842
2,1, 8,21, 0,17,20.00,30.00,SummerDesignDay
8,1175056.8018282796
2,1, 8,21, 0,17,30.00,40.00,SummerDesignDay
8,1173327.3351063642
2,1, 8,21, 0,17,40.00,50.00,SummerDesignDay
8,1171511.1359268955
2,1, 8,21, 0,17,50.00,60.00,SummerDesignDay
8,1169624.3855157774
2,1, 8,21, 0,18, 0.00,10.00,SummerDesignDay
8,1075390.3286967275
2,1, 8,21, 0,18,10.00,20.00,SummerDesignDay
8,1073299.9548970854
2,1, 8,21, 0,18,20.00,30.00,SummerDesignDay
8,1071184.8909390918
2,1, 8,21, 0,18,30.00,40.00,SummerDesignDay
8,1069076.3388308946
2,1, 8,21, 0,18,40.00,50.00,SummerDesignDay
8,1067002.04694106
2,1, 8,21, 0,18,50.00,60.00,SummerDesignDay
8,1064997.2616023493
2,1, 8,21, 0,19, 0.00,10.00,SummerDesignDay
8,1027322.1421401324
2,1, 8,21, 0,19,10.00,20.00,SummerDesignDay
8,1027322.1421401324
2,1, 8,21, 0,19,20.00,30.00,SummerDesignDay
8,1027322.1421401324
2,1, 8,21, 0,19,30.00,40.00,SummerDesignDay
8,1027322.1421401324
2,1, 8,21, 0,19,40.00,50.00,SummerDesignDay
8,1027322.1421401324
2,1, 8,21, 0,19,50.00,60.00,SummerDesignDay
8,1027322.1421401324
2,1, 8,21, 0,20, 0.00,10.00,SummerDesignDay
8,1027322.1421401324
2,1, 8,21, 0,20,10.00,20.00,SummerDesignDay
8,1027322.1421401324
2,1, 8,21, 0,20,20.00,30.00,SummerDesignDay
8,1027322.1421401324
2,1, 8,21, 0,20,30.00,40.00,SummerDesignDay
8,2282038.780973463
2,1, 8,21, 0,20,40.00,50.00,SummerDesignDay
8,1027322.1421401324
2,1, 8,21, 0,20,50.00,60.00,SummerDesignDay
8,1027322.1421401324
2,1, 8,21, 0,21, 0.00,10.00,SummerDesignDay
8,1027322.1421401324
2,1, 8,21, 0,21,10.00,20.00,SummerDesignDay
8,1027322.1421401324
2,1, 8,21, 0,21,20.00,30.00,SummerDesignDay
8,1027322.1421401324
2,1, 8,21, 0,21,30.00,40.00,SummerDesignDay
8,1574522.1421401326
2,1, 8,21, 0,21,40.00,50.00,SummerDesignDay
8,1574522.1421401326
2,1, 8,21, 0,21,50.00,60.00,SummerDesignDay
8,1574522.1421401326
2,1, 8,21, 0,22, 0.00,10.00,SummerDesignDay
8,1574522.1421401326
2,1, 8,21, 0,22,10.00,20.00,SummerDesignDay
8,1574522.1421401326
2,1, 8,21, 0,22,20.00,30.00,SummerDesignDay
8,1574522.1421401326
2,1, 8,21, 0,22,30.00,40.00,SummerDesignDay
8,1574522.1421401326
2,1, 8,21, 0,22,40.00,50.00,SummerDesignDay
8,1574522.1421401326
2,1, 8,21, 0,22,50.00,60.00,SummerDesignDay
8,1574522.1421401326
2,1, 8,21, 0,23, 0.00,10.00,SummerDesignDay
8,1574522.1421401326
2,1, 8,21, 0,23,10.00,20.00,SummerDesignDay
8,1574522.1421401326
2,1, 8,21, 0,23,20.00,30.00,SummerDesignDay
8,1574522.1421401326
2,1, 8,21, 0,23,30.00,40.00,SummerDesignDay
8,1574522.1421401326
2,1, 8,21, 0,23,40.00,50.00,SummerDesignDay
8,1574522.1421401326
2,1, 8,21, 0,23,50.00,60.00,SummerDesignDay
8,1574522.1421401326
2,1, 8,21, 0,24, 0.00,10.00,SummerDesignDay
8,1574522.1421401326
2,1, 8,21, 0,24,10.00,20.00,SummerDesignDay
8,1574522.1421401326
2,1, 8,21, 0,24,20.00,30.00,SummerDesignDay
8,1574522.1421401326
2,1, 8,21, 0,24,30.00,40.00,SummerDesignDay
8,1574522.1421401326
2,1, 8,21, 0,24,40.00,50.00,SummerDesignDay
8,1574522.1421401326
2,1, 8,21, 0,24,50.00,60.00,SummerDesignDay
8,1574522.1421401326
1,KODIAK ANN CLG .4% CONDNS WB=>MDB HVAC Sizing Pass 1,  57.75,-152.49,  -9.00,  34.00
2,1, 8,21, 0, 1, 0.00,10.00,SummerDesignDay
8,1389068.1421401324
2,1, 8,21, 0, 1,10.00,20.00,SummerDesignDay
8,1389068.1421401324
2,1, 8,21, 0, 1,20.00,30.00,SummerDesignDay
8,1389068.1421401324
2,1, 8,21, 0, 1,30.00,40.00,SummerDesignDay
8,1389068.1421401324
2,1, 8,21, 0, 1,40.00,50.00,SummerDesignDay
8,1389068.1421401324
2,1, 8,21, 0, 1,50.00,60.00,SummerDesignDay
8,1389068.1421401324
2,1, 8,21, 0, 2, 0.00,10.00,SummerDesignDay
8,1389068.1421401324
2,1, 8,21, 0, 2,10.00,20.00,SummerDesignDay
8,1389068.1421401324
2,1, 8,21, 0, 2,20.00,30.00,SummerDesignDay
8,1389068.1421401324
2,1, 8,21, 0, 2,30.00,40.00,SummerDesignDay
8,1389068.1421401324
2,1, 8,21, 0, 2,40.00,50.00,SummerDesignDay
8,1389068.1421401324
2,1, 8,21, 0, 2,50.00,60.00,SummerDesignDay
8,1389068.1421401324
2,1, 8,21, 0, 3, 0.00,10.00,SummerDesignDay
8,1389068.1421401324
2,1, 8,21, 0, 3,10.00,20.00,SummerDesignDay
8,1389068.1421401324
2,1, 8,21, 0, 3,20.00,30.00,SummerDesignDay
8,1389068.1421401324
2,1, 8,21, 0, 3,30.00,40.00,SummerDesignDay
8,1389068.1421401324
2,1, 8,21, 0, 3,40.00,50.00,SummerDesignDay
8,1389068.1421401324
2,1, 8,21, 0, 3,50.00,60.00,SummerDesignDay
8,1389068.1421401324
2,1, 8,21, 0, 4, 0.00,10.00,SummerDesignDay
8,1389068.1421401324
2,1, 8,21, 0, 4,10.00,20.00,SummerDesignDay
8,1389068.1421401324
2,1, 8,21, 0, 4,20.00,30.00,SummerDesignDay
8,1389068.1421401324
2,1, 8,21, 0, 4,30.00,40.00,SummerDesignDay
8,1389068.1421401324
2,1, 8,21, 0, 4,40.00,50.00,SummerDesignDay
8,1389068.1421401324
2,1, 8,21, 0, 4,50.00,60.00,SummerDesignDay
8,1389068.1421401324
2,1, 8,21, 0, 5, 0.00,10.00,SummerDesignDay
8,1389068.1421401324
2,1, 8,21, 0, 5,10.00,20.00,SummerDesignDay
8,1389068.1421401324
2,1, 8,21, 0, 5,20.00,30.00,SummerDesignDay
8,1389068.1421401324
2,1, 8,21, 0, 5,30.00,40.00,SummerDesignDay
8,1389068.1421401324
2,1, 8,21, 0, 5,40.00,50.00,SummerDesignDay
8,1389068.1421401324
2,1, 8,21, 0, 5,50.00,60.00,SummerDesignDay
8,2643784.5688054683
2,1, 8,21, 0, 6, 0.00,10.00,SummerDesignDay
8,1389068.1421401324
2,1, 8,21, 0, 6,10.00,20.00,SummerDesignDay
8,1389068.1421401324
2,1, 8,21, 0, 6,20.00,30.00,SummerDesignDay
8,1389068.1421401324
2,1, 8,21, 0, 6,30.00,40.00,SummerDesignDay
8,1389068.1421401324
2,1, 8,21, 0, 6,40.00,50.00,SummerDesignDay
8,1389068.1421401324
2,1, 8,21, 0, 6,50.00,60.00,SummerDesignDay
8,1027322.1421401324
2,1, 8,21, 0, 7, 0.00,10.00,SummerDesignDay
8,1027322.1421401324
2,1, 8,21, 0, 7,10.00,20.00,SummerDesignDay
8,1027322.1421401324
2,1, 8,21, 0, 7,20.00,30.00,SummerDesignDay
8,1027322.1421401324
2,1, 8,21, 0, 7,30.00,40.00,SummerDesignDay
8,1027322.1421401324
2,1, 8,21, 0, 7,40.00,50.00,SummerDesignDay
8,1027322.1421401324
2,1, 8,21, 0, 7,50.00,60.00,SummerDesignDay
8,1027322.1421401324
2,1, 8,21, 0, 8, 0.00,10.00,SummerDesignDay
8,1027322.1421401324
2,1, 8,21, 0, 8,10.00,20.00,SummerDesignDay
8,1027322.1421401324
2,1, 8,21, 0, 8,20.00,30.00,SummerDesignDay
8,1027322.1421401324
2,1, 8,21, 0, 8,30.00,40.00,SummerDesignDay
8,1027322.1421401324
2,1, 8,21, 0, 8,40.00,50.00,SummerDesignDay
8,1027322.1421401324
2,1, 8,21, 0, 8,50.00,60.00,SummerDesignDay
8,1027322.1421401324
2,1, 8,21, 0, 9, 0.00,10.00,SummerDesignDay
8,1118914.3737479374
2,1, 8,21, 0, 9,10.00,20.00,SummerDesignDay
8,1118914.3737479374
2,1, 8,21, 0, 9,20.00,30.00,SummerDesignDay
8,1118914.3737479374
2,1, 8,21, 0, 9,30.00,40.00,SummerDesignDay
8,1118914.3737479374
2,1, 8,21, 0, 9,40.00,50.00,SummerDesignDay
8,1118914.3737479374
2,1, 8,21, 0, 9,50.00,60.00,SummerDesignDay
8,1118914.3737479374
2,1, 8,21, 0,10, 0.00,10.00,SummerDesignDay
8,1118914.3737479374
2,1, 8,21, 0,10,10.00,20.00,SummerDesignDay
8,1123033.5316440267
2,1, 8,21, 0,10,20.00,30.00,SummerDesignDay
8,1118914.3737479374
2,1, 8,21, 0,10,30.00,40.00,SummerDesignDay
8,1131327.464022213
2,1, 8,21, 0,10,40.00,50.00,SummerDesignDay
8,2384917.930345633
2,1, 8,21, 0,10,50.00,60.00,SummerDesignDay
8,1133832.1740126547
2,1, 8,21, 0,11, 0.00,10.00,SummerDesignDay
8,1136006.5925705791
2,1, 8,21, 0,11,10.00,20.00,SummerDesignDay
8,1137978.978729127
2,1, 8,21, 0,11,20.00,30.00,SummerDesignDay
8,1139608.9491244606
2,1, 8,21, 0,11,30.00,40.00,SummerDesignDay
8,1141615.258947055
2,1, 8,21, 0,11,40.00,50.00,SummerDesignDay
8,1143527.4431364601
2,1, 8,21, 0,11,50.00,60.00,SummerDesignDay
8,1145362.2617026684
2,1, 8,21, 0,12, 0.00,10.00,SummerDesignDay
8,1147455.6882942931
2,1, 8,21, 0,12,10.00,20.00,SummerDesignDay
8,1149569.7564437084
2,1, 8,21, 0,12,20.00,30.00,SummerDesignDay
8,1151669.4657049128
2,1, 8,21, 0,12,30.00,40.00,SummerDesignDay
8,1153728.7062482724
2,1, 8,21, 0,12,40.00,50.00,SummerDesignDay
8,1155711.217551101
2,1, 8,21, 0,12,50.00,60.00,SummerDesignDay
8,1157589.4919567388
2,1, 8,21, 0,13, 0.00,10.00,SummerDesignDay
8,1067220.821015505
2,1, 8,21, 0,13,10.00,20.00,SummerDesignDay
8,1068680.1620553068
2,1, 8,21, 0,13,20.00,30.00,SummerDesignDay
8,1069929.2165894888
2,1, 8,21, 0,13,30.00,40.00,SummerDesignDay
8,1070810.7641056222
2,1, 8,21, 0,13,40.00,50.00,SummerDesignDay
8,1071186.8351374515
2,1, 8,21, 0,13,50.00,60.00,SummerDesignDay
8,1071091.229408937
2,1, 8,21, 0,14, 0.00,10.00,SummerDesignDay
8,1162855.7050977217
2,1, 8,21, 0,14,10.00,20.00,SummerDesignDay
8,1163056.066694336
2,1, 8,21, 0,14,20.00,30.00,SummerDesignDay
8,1163864.8786652668
2,1, 8,21, 0,14,30.00,40.00,SummerDesignDay
8,1165116.3876499103
2,1, 8,21, 0,14,40.00,50.00,SummerDesignDay
8,1166564.358832054
2,1, 8,21, 0,14,50.00,60.00,SummerDesignDay
8,1167952.552490708
2,1, 8,21, 0,15, 0.00,10.00,SummerDesignDay
8,1169034.313972311
2,1, 8,21, 0,15,10.00,20.00,SummerDesignDay
8,1169890.9853267395
2,1, 8,21, 0,15,20.00,30.00,SummerDesignDay
8,1170520.3713428283
2,1, 8,21, 0,15,30.00,40.00,SummerDesignDay
8,2425631.317845341
2,1, 8,21, 0,15,40.00,50.00,SummerDesignDay
8,1171150.3977520845
2,1, 8,21, 0,15,50.00,60.00,SummerDesignDay
8,1171166.5879734466
2,1, 8,21, 0,16, 0.00,10.00,SummerDesignDay
8,1170852.9889187468
2,1, 8,21, 0,16,10.00,20.00,SummerDesignDay
8,1170359.6217593744
2,1, 8,21, 0,16,20.00,30.00,SummerDesignDay
8,1169697.5474540053
2,1, 8,21, 0,16,30.00,40.00,SummerDesignDay
8,1168875.1672448867
2,1, 8,21, 0,16,40.00,50.00,SummerDesignDay
8,1167962.1340895162
2,1, 8,21, 0,16,50.00,60.00,SummerDesignDay
8,1166856.2958633758
2,1, 8,21, 0,17, 0.00,10.00,SummerDesignDay
8,1165568.4814143046
2,1, 8,21, 0,17,10.00,20.00,SummerDesignDay
8,1164157.2281759898
2,1, 8,21, 0,17,20.00,30.00,SummerDesignDay
8,1162634.9717569656
2,1, 8,21, 0,17,30.00,40.00,SummerDesignDay
8,1161015.4475105156
2,1, 8,21, 0,17,40.00,50.00,SummerDesignDay
8,1159315.6202221466
2,1, 8,21, 0,17,50.00,60.00,SummerDesignDay
8,1157553.1101595513
2,1, 8,21, 0,18, 0.00,10.00,SummerDesignDay
8,1063450.6044988798
2,1, 8,21, 0,18,10.00,20.00,SummerDesignDay
8,1061528.4056454774
2,1, 8,21, 0,18,20.00,30.00,SummerDesignDay
8,1059595.550102743
2,1, 8,21, 0,18,30.00,40.00,SummerDesignDay
8,1057677.179427098
2,1, 8,21, 0,18,40.00,50.00,SummerDesignDay
8,1055805.9106339572
2,1, 8,21, 0,18,50.00,60.00,SummerDesignDay
8,1054043.4427584358
2,1, 8,21, 0,19, 0.00,10.00,SummerDesignDay
8,1027322.1421401324
2,1, 8,21, 0,19,10.00,20.00,SummerDesignDay
8,1027322.1421401324
2,1, 8,21, 0,19,20.00,30.00,SummerDesignDay
8,1027322.1421401324
2,1, 8,21, 0,19,30.00,40.00,SummerDesignDay
8,1027322.1421401324
2,1, 8,21, 0,19,40.00,50.00,SummerDesignDay
8,1027322.1421401324
2,1, 8,21, 0,19,50.00,60.00,SummerDesignDay
8,1027322.1421401324
2,1, 8,21, 0,20, 0.00,10.00,SummerDesignDay
8,1027322.1421401324
2,1, 8,21, 0,20,10.00,20.00,SummerDesignDay
8,1027322.1421401324
2,1, 8,21, 0,20,20.00,30.00,SummerDesignDay
8,1027322.1421401324
2,1, 8,21, 0,20,30.00,40.00,SummerDesignDay
8,2282038.7813251414
2,1, 8,21, 0,20,40.00,50.00,SummerDesignDay
8,1027322.1421401324
2,1, 8,21, 0,20,50.00,60.00,SummerDesignDay
8,1027322.1421401324
2,1, 8,21, 0,21, 0.00,10.00,SummerDesignDay
8,1027322.1421401324
2,1, 8,21, 0,21,10.00,20.00,SummerDesignDay
8,1027322.1421401324
2,1, 8,21, 0,21,20.00,30.00,SummerDesignDay
8,1027322.1421401324
2,1, 8,21, 0,21,30.00,40.00,SummerDesignDay
8,1574522.1421401326
2,1, 8,21, 0,21,40.00,50.00,SummerDesignDay
8,1574522.1421401326
2,1, 8,21, 0,21,50.00,60.00,SummerDesignDay
8,1574522.1421401326
2,1, 8,21, 0,22, 0.00,10.00,SummerDesignDay
8,1574522.1421401326
2,1, 8,21, 0,22,10.00,20.00,SummerDesignDay
8,1574522.1421401326
2,1, 8,21, 0,22,20.00,30.00,SummerDesignDay
8,1574522.1421401326
2,1, 8,21, 0,22,30.00,40.00,SummerDesignDay
8,1574522.1421401326
2,1, 8,21, 0,22,40.00,50.00,SummerDesignDay
8,1574522.1421401326
2,1, 8,21, 0,22,50.00,60.00,SummerDesignDay
8,1574522.1421401326
2,1, 8,21, 0,23, 0.00,10.00,SummerDesignDay
8,1574522.1421401326
2,1, 8,21, 0,23,10.00,20.00,SummerDesignDay
8,1574522.1421401326
2,1, 8,21, 0,23,20.00,30.00,SummerDesignDay
8,1574522.1421401326
2,1, 8,21, 0,23,30.00,40.00,SummerDesignDay
8,1574522.1421401326
2,1, 8,21, 0,23,40.00,50.00,SummerDesignDay
8,1574522.1421401326
2,1, 8,21, 0,23,50.00,60.00,SummerDesignDay
8,1574522.1421401326
2,1, 8,21, 0,24, 0.00,10.00,SummerDesignDay
8,1574522.1421401326
2,1, 8,21, 0,24,10.00,20.00,SummerDesignDay
8,1574522.1421401326
2,1, 8,21, 0,24,20.00,30.00,SummerDesignDay
8,1574522.1421401326
2,1, 8,21, 0,24,30.00,40.00,SummerDesignDay
8,1574522.1421401326
2,1, 8,21, 0,24,40.00,50.00,SummerDesignDay
8,1574522.1421401326
2,1, 8,21, 0,24,50.00,60.00,SummerDesignDay
8,1574522.1421401326
1,KODIAK ANN HTG 99.6% CONDNS DB HVAC Sizing Pass 1,  57.75,-152.49,  -9.00,  34.00
2,1, 1,21, 0, 1, 0.00,10.00,WinterDesignDay
8,4274369.96351347
2,1, 1,21, 0, 1,10.00,20.00,WinterDesignDay
8,4275116.313552377
2,1, 1,21, 0, 1,20.00,30.00,WinterDesignDay
8,4275844.13061873
2,1, 1,21, 0, 1,30.00,40.00,WinterDesignDay
8,4276555.666803223
2,1, 1,21, 0, 1,40.00,50.00,WinterDesignDay
8,4277252.784398574
2,1, 1,21, 0, 1,50.00,60.00,WinterDesignDay
8,4277937.024246178
2,1, 1,21, 0, 2, 0.00,10.00,WinterDesignDay
8,4278609.662298926
2,1, 1,21, 0, 2,10.00,20.00,WinterDesignDay
8,4279271.756362715
2,1, 1,21, 0, 2,20.00,30.00,WinterDesignDay
8,4279924.184675301
2,1, 1,21, 0, 2,30.00,40.00,WinterDesignDay
8,4280567.677716403
2,1, 1,21, 0, 2,40.00,50.00,WinterDesignDay
8,4281202.84441522
2,1, 1,21, 0, 2,50.00,60.00,WinterDesignDay
8,4281830.193727448
2,1, 1,21, 0, 3, 0.00,10.00,WinterDesignDay
8,4282450.152390264
2,1, 1,21, 0, 3,10.00,20.00,WinterDesignDay
8,4283063.079525452
2,1, 1,21, 0, 3,20.00,30.00,WinterDesignDay
8,4283669.278645542
2,1, 1,21, 0, 3,30.00,40.00,WinterDesignDay
8,4284269.007521992
2,1, 1,21, 0, 3,40.00,50.00,WinterDesignDay
8,4284862.4862938225
2,1, 1,21, 0, 3,50.00,60.00,WinterDesignDay
8,4285449.904129151
2,1, 1,21, 0, 4, 0.00,10.00,WinterDesignDay
8,4286031.4246970825
2,1, 1,21, 0, 4,10.00,20.00,WinterDesignDay
8,4286607.190661677
2,1, 1,21, 0, 4,20.00,30.00,WinterDesignDay
8,4287177.32737247
2,1, 1,21, 0, 4,30.00,40.00,WinterDesignDay
8,4287741.945895062
2,1, 1,21, 0, 4,40.00,50.00,WinterDesignDay
8,4288301.145499548
2,1, 1,21, 0, 4,50.00,60.00,WinterDesignDay
8,4288855.015703893
2,1, 1,21, 0, 5, 0.00,10.00,WinterDesignDay
8,4289403.637951699
2,1, 1,21, 0, 5,10.00,20.00,WinterDesignDay
8,4289947.086990028
2,1, 1,21, 0, 5,20.00,30.00,WinterDesignDay
8,4290485.432000808
2,1, 1,21, 0, 5,30.00,40.00,WinterDesignDay
8,4291018.73753007
2,1, 1,21, 0, 5,40.00,50.00,WinterDesignDay
8,4291547.064251178
2,1, 1,21, 0, 5,50.00,60.00,WinterDesignDay
8,5546786.896257205
2,1, 1,21, 0, 6, 0.00,10.00,WinterDesignDay
8,4292589.008249428
2,1, 1,21, 0, 6,10.00,20.00,WinterDesignDay
8,4293102.732614156
2,1, 1,21, 0, 6,20.00,30.00,WinterDesignDay
8,4293611.693117394
2,1, 1,21, 0, 6,30.00,40.00,WinterDesignDay
8,4294115.938517888
2,1, 1,21, 0, 6,40.00,50.00,WinterDesignDay
8,4294615.516137225
2,1, 1,21, 0, 6,50.00,60.00,WinterDesignDay
8,4295110.47205374
2,1, 1,21, 0, 7, 0.00,10.00,WinterDesignDay
8,4763557.577794083
2,1, 1,21, 0, 7,10.00,20.00,WinterDesignDay
8,4687702.680938329
2,1, 1,21, 0, 7,20.00,30.00,WinterDesignDay
8,4725544.435890857
2,1, 1,21, 0, 7,30.00,40.00,WinterDesignDay
8,4685526.467668162
2,1, 1,21, 0, 7,40.00,50.00,WinterDesignDay
8,4663952.153631196
2,1, 1,21, 0, 7,50.00,60.00,WinterDesignDay
8,4647119.699497493
2,1, 1,21, 0, 8, 0.00,10.00,WinterDesignDay
8,4928623.550106403
2,1, 1,21, 0, 8,10.00,20.00,WinterDesignDay
8,4855536.224686521
2,1, 1,21, 0, 8,20.00,30.00,WinterDesignDay
8,4868682.65566174
2,1, 1,21, 0, 8,30.00,40.00,WinterDesignDay
8,4824066.624037571
2,1, 1,21, 0, 8,40.00,50.00,WinterDesignDay
8,4792742.310745059
2,1, 1,21, 0, 8,50.00,60.00,WinterDesignDay
8,4768448.901504849
2,1, 1,21, 0, 9, 0.00,10.00,WinterDesignDay
8,4895301.92882224
2,1, 1,21, 0, 9,10.00,20.00,WinterDesignDay
8,4835882.475287531
2,1, 1,21, 0, 9,20.00,30.00,WinterDesignDay
8,4835315.537579208
2,1, 1,21, 0, 9,30.00,40.00,WinterDesignDay
8,4804137.142939941
2,1, 1,21, 0, 9,40.00,50.00,WinterDesignDay
8,4783460.859185316
2,1, 1,21, 0, 9,50.00,60.00,WinterDesignDay
8,4766850.27272149
2,1, 1,21, 0,10, 0.00,10.00,WinterDesignDay
8,4753154.127729342
2,1, 1,21, 0,10,10.00,20.00,WinterDesignDay
8,4741882.7110891715
2,1, 1,21, 0,10,20.00,30.00,WinterDesignDay
8,4732590.191540416
2,1, 1,21, 0,10,30.00,40.00,WinterDesignDay
8,4724911.527169208
2,1, 1,21, 0,10,40.00,50.00,WinterDesignDay
8,5426050.510535569
2,1, 1,21, 0,10,50.00,60.00,WinterDesignDay
8,4166117.956346463
2,1, 1,21, 0,11, 0.00,10.00,WinterDesignDay
8,4161722.5156521555
2,1, 1,21, 0,11,10.00,20.00,WinterDesignDay
8,4158002.65186089
2,1, 1,21, 0,11,20.00,30.00,WinterDesignDay
8,4154841.486382835
2,1, 1,21, 0,11,30.00,40.00,WinterDesignDay
8,4152133.298765536
2,1, 1,21, 0,11,40.00,50.00,WinterDesignDay
8,4149792.8653058573
2,1, 1,21, 0,11,50.00,60.00,WinterDesignDay
8,4147750.9743180843
2,1, 1,21, 0,12, 0.00,10.00,WinterDesignDay
8,4145951.572802026
2,1, 1,21, 0,12,10.00,20.00,WinterDesignDay
8,4144431.456909536
2,1, 1,21, 0,12,20.00,30.00,WinterDesignDay
8,4143045.29174684
2,1, 1,21, 0,12,30.00,40.00,WinterDesignDay
8,4141763.868304164
2,1, 1,21, 0,12,40.00,50.00,WinterDesignDay
8,4140579.6152966297
2,1, 1,21, 0,12,50.00,60.00,WinterDesignDay
8,4139475.754134654
2,1, 1,21, 0,13, 0.00,10.00,WinterDesignDay
8,4140648.976262684
2,1, 1,21, 0,13,10.00,20.00,WinterDesignDay
8,4139774.526789465
2,1, 1,21, 0,13,20.00,30.00,WinterDesignDay
8,4138914.851889259
2,1, 1,21, 0,13,30.00,40.00,WinterDesignDay
8,4138081.7285463437
2,1, 1,21, 0,13,40.00,50.00,WinterDesignDay
8,4137271.60394809
2,1, 1,21, 0,13,50.00,60.00,WinterDesignDay
8,4136481.417328246
2,1, 1,21, 0,14, 0.00,10.00,WinterDesignDay
8,4133498.4730081717
2,1, 1,21, 0,14,10.00,20.00,WinterDesignDay
8,4132634.3102224325
2,1, 1,21, 0,14,20.00,30.00,WinterDesignDay
8,4131815.7427681875
2,1, 1,21, 0,14,30.00,40.00,WinterDesignDay
8,4131022.2676672023
2,1, 1,21, 0,14,40.00,50.00,WinterDesignDay
8,4130250.315298043
2,1, 1,21, 0,14,50.00,60.00,WinterDesignDay
8,4129497.1386306896
2,1, 1,21, 0,15, 0.00,10.00,WinterDesignDay
8,4128760.6156449295
2,1, 1,21, 0,15,10.00,20.00,WinterDesignDay
8,4128038.977556794
2,1, 1,21, 0,15,20.00,30.00,WinterDesignDay
8,4127330.7388425525
2,1, 1,21, 0,15,30.00,40.00,WinterDesignDay
8,5381327.935376948
2,1, 1,21, 0,15,40.00,50.00,WinterDesignDay
8,4125949.6644946192
2,1, 1,21, 0,15,50.00,60.00,WinterDesignDay
8,4125274.9027975965
2,1, 1,21, 0,16, 0.00,10.00,WinterDesignDay
8,4124609.6304778806
2,1, 1,21, 0,16,10.00,20.00,WinterDesignDay
8,4123953.232147904
2,1, 1,21, 0,16,20.00,30.00,WinterDesignDay
8,4123305.1918453337
2,1, 1,21, 0,16,30.00,40.00,WinterDesignDay
8,4122665.0759643707
2,1, 1,21, 0,16,40.00,50.00,WinterDesignDay
8,4122032.5189053942
2,1, 1,21, 0,16,50.00,60.00,WinterDesignDay
8,4121407.2110893866
2,1, 1,21, 0,17, 0.00,10.00,WinterDesignDay
8,4120788.8890001616
2,1, 1,21, 0,17,10.00,20.00,WinterDesignDay
8,4120177.326946455
2,1, 1,21, 0,17,20.00,30.00,WinterDesignDay
8,4119572.3302700142
2,1, 1,21, 0,17,30.00,40.00,WinterDesignDay
8,4118973.729761613
2,1, 1,21, 0,17,40.00,50.00,WinterDesignDay
8,4118381.3770801337
2,1, 1,21, 0,17,50.00,60.00,WinterDesignDay
8,4664995.141001733
2,1, 1,21, 0,18, 0.00,10.00,WinterDesignDay
8,4667612.198803369
2,1, 1,21, 0,18,10.00,20.00,WinterDesignDay
8,4667191.851486454
2,1, 1,21, 0,18,20.00,30.00,WinterDesignDay
8,4666730.9886147985
2,1, 1,21, 0,18,30.00,40.00,WinterDesignDay
8,4666257.187307805
2,1, 1,21, 0,18,40.00,50.00,WinterDesignDay
8,4665773.952580661
2,1, 1,21, 0,18,50.00,60.00,WinterDesignDay
8,4665283.911024037
2,1, 1,21, 0,19, 0.00,10.00,WinterDesignDay
8,3949136.767644506
2,1, 1,21, 0,19,10.00,20.00,WinterDesignDay
8,3991728.424941371
2,1, 1,21, 0,19,20.00,30.00,WinterDesignDay
8,4088674.8727243557
2,1, 1,21, 0,19,30.00,40.00,WinterDesignDay
8,4163026.8208622593
2,1, 1,21, 0,19,40.00,50.00,WinterDesignDay
8,4212143.740924817
2,1, 1,21, 0,19,50.00,60.00,WinterDesignDay
8,4251863.557033166
2,1, 1,21, 0,20, 0.00,10.00,WinterDesignDay
8,4284547.3965270445
2,1, 1,21, 0,20,10.00,20.00,WinterDesignDay
8,4311569.978414333
2,1, 1,21, 0,20,20.00,30.00,WinterDesignDay
8,4333983.258612022
2,1, 1,21, 0,20,30.00,40.00,WinterDesignDay
8,5608366.727952087
2,1, 1,21, 0,20,40.00,50.00,WinterDesignDay
8,4370106.974680088
2,1, 1,21, 0,20,50.00,60.00,WinterDesignDay
8,4383931.420602322
2,1, 1,21, 0,21, 0.00,10.00,WinterDesignDay
8,4395525.976814499
2,1, 1,21, 0,21,10.00,20.00,WinterDesignDay
8,4405223.400859778
2,1, 1,21, 0,21,20.00,30.00,WinterDesignDay
8,4413337.10510271
2,1, 1,21, 0,21,30.00,40.00,WinterDesignDay
8,4420134.445957193
2,1, 1,21, 0,21,40.00,50.00,WinterDesignDay
8,4425842.177351273
2,1, 1,21, 0,21,50.00,60.00,WinterDesignDay
8,4430580.985393267
2,1, 1,21, 0,22, 0.00,10.00,WinterDesignDay
8,4434609.739547611
2,1, 1,21, 0,22,10.00,20.00,WinterDesignDay
8,4438053.101799559
2,1, 1,21, 0,22,20.00,30.00,WinterDesignDay
8,4441004.383964474
2,1, 1,21, 0,22,30.00,40.00,WinterDesignDay
8,4443551.242475914
2,1, 1,21, 0,22,40.00,50.00,WinterDesignDay
8,4445765.3476522975
2,1, 1,21, 0,22,50.00,60.00,WinterDesignDay
8,4447705.813959185
2,1, 1,21, 0,23, 0.00,10.00,WinterDesignDay
8,4449421.228311681
2,1, 1,21, 0,23,10.00,20.00,WinterDesignDay
8,4450951.4718312705
2,1, 1,21, 0,23,20.00,30.00,WinterDesignDay
8,4452254.800180454
2,1, 1,21, 0,23,30.00,40.00,WinterDesignDay
8,4453455.975142103
2,1, 1,21, 0,23,40.00,50.00,WinterDesignDay
8,4454576.473599667
2,1, 1,21, 0,23,50.00,60.00,WinterDesignDay
8,4455619.689712024
2,1, 1,21, 0,24, 0.00,10.00,WinterDesignDay
8,4456598.198911726
2,1, 1,21, 0,24,10.00,20.00,WinterDesignDay
8,4457522.1319306325
2,1, 1,21, 0,24,20.00,30.00,WinterDesignDay
8,4458399.963520737
2,1, 1,21, 0,24,30.00,40.00,WinterDesignDay
8,4459238.724810519
2,1, 1,21, 0,24,40.00,50.00,WinterDesignDay
8,4460044.24227418
2,1, 1,21, 0,24,50.00,60.00,WinterDesignDay
8,4460821.338321852
1,KODIAK APRIL .4% CONDNS DB=>MCWB HVAC Sizing Pass 1,  57.75,-152.49,  -9.00,  34.00
2,1, 4,21, 0, 1, 0.00,10.00,SummerDesignDay
8,1639786.5991630715
2,1, 4,21, 0, 1,10.00,20.00,SummerDesignDay
8,1644869.7354634257
2,1, 4,21, 0, 1,20.00,30.00,SummerDesignDay
8,1649833.3629492184
2,1, 4,21, 0, 1,30.00,40.00,SummerDesignDay
8,1654697.06517859
2,1, 4,21, 0, 1,40.00,50.00,SummerDesignDay
8,1659476.816108648
2,1, 4,21, 0, 1,50.00,60.00,SummerDesignDay
8,1664186.042467121
2,1, 4,21, 0, 2, 0.00,10.00,SummerDesignDay
8,1668320.53499123
2,1, 4,21, 0, 2,10.00,20.00,SummerDesignDay
8,1672376.909597567
2,1, 4,21, 0, 2,20.00,30.00,SummerDesignDay
8,1676377.4283529266
2,1, 4,21, 0, 2,30.00,40.00,SummerDesignDay
8,1680332.1872867853
2,1, 4,21, 0, 2,40.00,50.00,SummerDesignDay
8,1684248.2678421491
2,1, 4,21, 0, 2,50.00,60.00,SummerDesignDay
8,1688131.3313194874
2,1, 4,21, 0, 3, 0.00,10.00,SummerDesignDay
8,1691714.7303562553
2,1, 4,21, 0, 3,10.00,20.00,SummerDesignDay
8,1695270.2809497467
2,1, 4,21, 0, 3,20.00,30.00,SummerDesignDay
8,1698799.2990762754
2,1, 4,21, 0, 3,30.00,40.00,SummerDesignDay