Program Version,EnergyPlus, Version 23.1.0-87ed9199d4, YMD=2023.06.21 09:39
1,5,Environment Title[],Latitude[deg],Longitude[deg],Time Zone[],Elevation[m]
2,8,Day of Simulation[],Month[],Day of Month[],DST Indicator[1=yes 0=no],Hour[],StartMinute[],EndMinute[],DayType
3,5,Cumulative Day of Simulation[],Month[],Day of Month[],DST Indicator[1=yes 0=no],DayType  ! When Daily Report Variables Requested
4,2,Cumulative Days of Simulation[],Month[]  ! When Monthly Report Variables Requested
5,1,Cumulative Days of Simulation[] ! When Run Period Report Variables Requested
6,1,Calendar Year of Simulation[] ! When Annual Report Variables Requested
8,1,Electricity:Facility [J] !TimeStep
3420,1,NaturalGas:Facility [J] !TimeStep
End of Data Dictionary
1,RUN PERIOD 1,  57.75,-152.50,  -9.00,   5.00
2,1, 1, 1, 0, 1, 0.00,60.00,Sunday
8,425888081.5906384
3420,87640644.39109954
2,1, 1, 1, 0, 2, 0.00,60.00,Sunday
8,427280663.88617367
3420,97726099.3368593
2,1, 1, 1, 0, 3, 0.00,60.00,Sunday
8,337547533.5402375
3420,95806490.13245323
2,1, 1, 1, 0, 4, 0.00,60.00,Sunday
8,335774255.12256444
3420,68679158.32052216
2,1, 1, 1, 0, 5, 0.00,60.00,Sunday
8,334348264.48677295
3420,60828540.2561732
2,1, 1, 1, 0, 6, 0.00,60.00,Sunday
8,334274972.37919754
3420,57381369.563511446
2,1, 1, 1, 0, 7, 0.00,60.00,Sunday
8,335547008.82439226
3420,57989134.27005849
2,1, 1, 1, 0, 8, 0.00,60.00,Sunday
8,334293745.092588
3420,58300784.94443713
2,1, 1, 1, 0, 9, 0.00,60.00,Sunday
8,429137712.8112715
3420,57322442.33738499
2,1, 1, 1, 0,10, 0.00,60.00,Sunday
8,430232856.08784163
3420,49673155.99636401
2,1, 1, 1, 0,11, 0.00,60.00,Sunday
8,428589545.1399419
3420,31457095.555080276
2,1, 1, 1, 0,12, 0.00,60.00,Sunday
8,428581960.0197754
3420,31080648.976377532
2,1, 1, 1, 0,13, 0.00,60.00,Sunday
8,427136513.6700595
3420,29580600.67893622
2,1, 1, 1, 0,14, 0.00,60.00,Sunday
8,428539933.01279604
3420,29115508.771426428
2,1, 1, 1, 0,15, 0.00,60.00,Sunday
8,428669924.52808183
3420,35204794.25984766
2,1, 1, 1, 0,16, 0.00,60.00,Sunday
8,429960369.8797519
3420,36684740.655506775
2,1, 1, 1, 0,17, 0.00,60.00,Sunday
8,428854066.1200172
3420,43913254.70821133
2,1, 1, 1, 0,18, 0.00,60.00,Sunday
8,420896559.5392222
3420,46755613.65366223
2,1, 1, 1, 0,19, 0.00,60.00,Sunday
8,422190358.8181593
3420,48429043.78381859
2,1, 1, 1, 0,20, 0.00,60.00,Sunday
8,421020895.75295424
3420,52665797.892082706
2,1, 1, 1, 0,21, 0.00,60.00,Sunday
8,421034284.93434495
3420,53306904.960584015
2,1, 1, 1, 0,22, 0.00,60.00,Sunday
8,421044083.02994126
3420,53776811.51244374
2,1, 1, 1, 0,23, 0.00,60.00,Sunday
8,422415148.02702415
3420,59088377.65767375
2,1, 1, 1, 0,24, 0.00,60.00,Sunday
8,421251196.14104235
3420,63586390.48468353
2,2, 1, 2, 0, 1, 0.00,60.00,Monday
8,425084497.45422566
3420,64344105.149526596
2,2, 1, 2, 0, 2, 0.00,60.00,Monday
8,426366242.60059565
3420,65391818.51176636
2,2, 1, 2, 0, 3, 0.00,60.00,Monday
8,334590701.486403
3420,72268044.80071248
2,2, 1, 2, 0, 4, 0.00,60.00,Monday
8,334513596.81840026
3420,68612922.19686173
2,2, 1, 2, 0, 5, 0.00,60.00,Monday
8,335792960.0406668
3420,69546600.42741506
2,2, 1, 2, 0, 6, 0.00,60.00,Monday
8,334550723.0364045
3420,70303109.6752108
2,2, 1, 2, 0, 7, 0.00,60.00,Monday
8,335243265.1335639
3420,97657063.30272764
2,2, 1, 2, 0, 8, 0.00,60.00,Monday
8,347251833.9151174
3420,98158609.1547644
2,2, 1, 2, 0, 9, 0.00,60.00,Monday
8,440738043.75602454
3420,94851466.51399058
2,2, 1, 2, 0,10, 0.00,60.00,Monday
8,440746106.5902221
3420,92762516.60908288
2,2, 1, 2, 0,11, 0.00,60.00,Monday
8,441577120.94726944
3420,68065863.51551321
2,2, 1, 2, 0,12, 0.00,60.00,Monday
8,440199905.96976596
3420,59828066.52818978
2,2, 1, 2, 0,13, 0.00,60.00,Monday
8,437498740.5868255
3420,56847024.190599084
2,2, 1, 2, 0,14, 0.00,60.00,Monday
8,441409802.1250884
3420,54942966.30330184
2,2, 1, 2, 0,15, 0.00,60.00,Monday
8,440235406.94617796
3420,60265349.2479206
2,2, 1, 2, 0,16, 0.00,60.00,Monday
8,440481714.9693906
3420,74732934.05682988
2,2, 1, 2, 0,17, 0.00,60.00,Monday
8,429820289.7771811
3420,85742234.21690136
2,2, 1, 2, 0,18, 0.00,60.00,Monday
8,423571670.4051969
3420,95624703.03473793
2,2, 1, 2, 0,19, 0.00,60.00,Monday
8,423140826.6512954
3420,83407543.89345732
2,2, 1, 2, 0,20, 0.00,60.00,Monday
8,424420093.36844033
3420,88716404.40191054
2,2, 1, 2, 0,21, 0.00,60.00,Monday
8,427250929.6307858
3420,95940992.22779284
2,2, 1, 2, 0,22, 0.00,60.00,Monday
8,428227208.6029011
3420,101884354.7526182
2,2, 1, 2, 0,23, 0.00,60.00,Monday
8,431271106.2432832
3420,109051156.91854843
2,2, 1, 2, 0,24, 0.00,60.00,Monday
8,432262772.7551795
3420,105981474.01069233
2,3, 1, 3, 0, 1, 0.00,60.00,Tuesday
8,438568112.95999885
3420,117973196.66426286
2,3, 1, 3, 0, 2, 0.00,60.00,Tuesday
8,440556524.2301998
3420,123870502.71572769
2,3, 1, 3, 0, 3, 0.00,60.00,Tuesday
8,353890839.81586665
3420,132080228.22178668
2,3, 1, 3, 0, 4, 0.00,60.00,Tuesday
8,350794918.7724278
3420,124635068.04462406
2,3, 1, 3, 0, 5, 0.00,60.00,Tuesday
8,351215258.39827126
3420,125879349.27245148
2,3, 1, 3, 0, 6, 0.00,60.00,Tuesday
8,349878884.620411
3420,117171361.57326262
2,3, 1, 3, 0, 7, 0.00,60.00,Tuesday
8,351021915.0804374
3420,151186122.17636433
2,3, 1, 3, 0, 8, 0.00,60.00,Tuesday
8,361884593.6387341
3420,147806837.05793494
2,3, 1, 3, 0, 9, 0.00,60.00,Tuesday
8,459353906.477515
3420,155285906.42412677
2,3, 1, 3, 0,10, 0.00,60.00,Tuesday
8,458355569.0108715
3420,153780854.01693356
2,3, 1, 3, 0,11, 0.00,60.00,Tuesday
8,452678567.9669058
3420,139901979.35969552
2,3, 1, 3, 0,12, 0.00,60.00,Tuesday
8,445468712.37373865
3420,118217257.44730933
2,3, 1, 3, 0,13, 0.00,60.00,Tuesday
8,442051279.5582024
3420,106550063.20454927
2,3, 1, 3, 0,14, 0.00,60.00,Tuesday
8,442755342.03432757
3420,95024248.41863737
2,3, 1, 3, 0,15, 0.00,60.00,Tuesday
8,443397489.4797286
3420,100463276.05404362
2,3, 1, 3, 0,16, 0.00,60.00,Tuesday
8,445029421.279414
3420,109039780.73006292
2,3, 1, 3, 0,17, 0.00,60.00,Tuesday
8,433493333.2164305
3420,113618443.7386715
2,3, 1, 3, 0,18, 0.00,60.00,Tuesday
8,426091204.72959626
3420,114371082.38132685
2,3, 1, 3, 0,19, 0.00,60.00,Tuesday
8,426032891.24888784
3420,85895887.74622525
2,3, 1, 3, 0,20, 0.00,60.00,Tuesday
8,424978000.6831825
3420,86454243.65579304
2,3, 1, 3, 0,21, 0.00,60.00,Tuesday
8,426234468.3190108
3420,91675105.99356385
2,3, 1, 3, 0,22, 0.00,60.00,Tuesday
8,427846161.89504755
3420,93126489.19809012
2,3, 1, 3, 0,23, 0.00,60.00,Tuesday
8,428330767.8882299
3420,99503198.47405343
2,3, 1, 3, 0,24, 0.00,60.00,Tuesday
8,431300146.0902742
3420,109555067.2489787
2,4, 1, 4, 0, 1, 0.00,60.00,Wednesday
8,438412494.168689
3420,115980361.53838669
2,4, 1, 4, 0, 2, 0.00,60.00,Wednesday
8,436289031.0837688
3420,112220202.78831169
2,4, 1, 4, 0, 3, 0.00,60.00,Wednesday
8,347965984.0350913
3420,119661741.44515297
2,4, 1, 4, 0, 4, 0.00,60.00,Wednesday
8,349629633.0745378
3420,120459636.3325539
2,4, 1, 4, 0, 5, 0.00,60.00,Wednesday
8,348822407.6663797
3420,121578218.14446707
2,4, 1, 4, 0, 6, 0.00,60.00,Wednesday
8,349015158.70058095
3420,122169058.52657354
2,4, 1, 4, 0, 7, 0.00,60.00,Wednesday
8,348527082.9336184
3420,144601643.01120964
2,4, 1, 4, 0, 8, 0.00,60.00,Wednesday
8,361948248.79464537
3420,147052360.02443665
2,4, 1, 4, 0, 9, 0.00,60.00,Wednesday
8,453795122.04860806
3420,143298341.2493295
2,4, 1, 4, 0,10, 0.00,60.00,Wednesday
8,451128415.2337899
3420,131937205.1177156
2,4, 1, 4, 0,11, 0.00,60.00,Wednesday
8,444829500.39115965
3420,111098028.12382466
2,4, 1, 4, 0,12, 0.00,60.00,Wednesday
8,440711156.9954899
3420,89164582.32391551
2,4, 1, 4, 0,13, 0.00,60.00,Wednesday
8,437951653.1778143
3420,84004216.78568478
2,4, 1, 4, 0,14, 0.00,60.00,Wednesday
8,441895720.7295526
3420,84297469.31641908
2,4, 1, 4, 0,15, 0.00,60.00,Wednesday
8,441252794.9879958
3420,99271583.52507612
2,4, 1, 4, 0,16, 0.00,60.00,Wednesday
8,442304144.30808663
3420,110229162.22386901
2,4, 1, 4, 0,17, 0.00,60.00,Wednesday
8,433306305.205248
3420,111466591.76438206
2,4, 1, 4, 0,18, 0.00,60.00,Wednesday
8,425241929.2536947
3420,115537748.83940691
2,4, 1, 4, 0,19, 0.00,60.00,Wednesday
8,424228374.87980145
3420,86872366.44473907
2,4, 1, 4, 0,20, 0.00,60.00,Wednesday
8,422411483.9127161
3420,59286719.384478435
2,4, 1, 4, 0,21, 0.00,60.00,Wednesday
8,421541002.84997946
3420,71048291.34547608
2,4, 1, 4, 0,22, 0.00,60.00,Wednesday
8,421777462.0852035
3420,75876474.51406161
2,4, 1, 4, 0,23, 0.00,60.00,Wednesday
8,423422712.02433246
3420,80128321.58145179
2,4, 1, 4, 0,24, 0.00,60.00,Wednesday
8,423108588.90013975
3420,85620035.725157
2,5, 1, 5, 0, 1, 0.00,60.00,Thursday
8,429088217.62331456
3420,95820805.3344667
2,5, 1, 5, 0, 2, 0.00,60.00,Thursday
8,430601024.64447683
3420,101229805.32910602
2,5, 1, 5, 0, 3, 0.00,60.00,Thursday
8,345012868.309428
3420,112137136.05796663
2,5, 1, 5, 0, 4, 0.00,60.00,Thursday
8,345823064.05746967
3420,117366448.63827284
2,5, 1, 5, 0, 5, 0.00,60.00,Thursday
8,347731484.2012886
3420,122325816.0021897
2,5, 1, 5, 0, 6, 0.00,60.00,Thursday
8,352467382.3020151
3420,133408805.64353567
2,5, 1, 5, 0, 7, 0.00,60.00,Thursday
8,355273969.2613369
3420,170514487.6686106
2,5, 1, 5, 0, 8, 0.00,60.00,Thursday
8,369205195.8500246
3420,182069108.6243189
2,5, 1, 5, 0, 9, 0.00,60.00,Thursday
8,465628536.2378302
3420,178925397.69265965
2,5, 1, 5, 0,10, 0.00,60.00,Thursday
8,463652369.9451554
3420,174388229.62524486
2,5, 1, 5, 0,11, 0.00,60.00,Thursday
8,457192795.34662354
3420,158452765.06080323
2,5, 1, 5, 0,12, 0.00,60.00,Thursday
8,451874206.44193494
3420,145051103.43347812
2,5, 1, 5, 0,13, 0.00,60.00,Thursday
8,447654366.24331075
3420,140995653.75742933
2,5, 1, 5, 0,14, 0.00,60.00,Thursday
8,452054628.86072886
3420,144210546.13322854
2,5, 1, 5, 0,15, 0.00,60.00,Thursday
8,454998894.68070704
3420,148598557.20759892
2,5, 1, 5, 0,16, 0.00,60.00,Thursday
8,459410440.2166941
3420,166987320.87064397
2,5, 1, 5, 0,17, 0.00,60.00,Thursday
8,454550453.6517365
3420,183064608.66322458
2,5, 1, 5, 0,18, 0.00,60.00,Thursday
8,450047367.33913356
3420,186854540.85775977
2,5, 1, 5, 0,19, 0.00,60.00,Thursday
8,449264763.83593273
3420,157873225.59769318
2,5, 1, 5, 0,20, 0.00,60.00,Thursday
8,450171694.3601784
3420,162871335.31881115
2,5, 1, 5, 0,21, 0.00,60.00,Thursday
8,452676761.96430594
3420,171339140.85543582
2,5, 1, 5, 0,22, 0.00,60.00,Thursday
8,453762158.78256303
3420,169945737.86593044
2,5, 1, 5, 0,23, 0.00,60.00,Thursday
8,453507618.90733355
3420,172089490.81772354
2,5, 1, 5, 0,24, 0.00,60.00,Thursday
8,454566163.34914386
3420,174122024.9942742
2,6, 1, 6, 0, 1, 0.00,60.00,Friday
8,460360768.6267011
3420,175665226.46658936
2,6, 1, 6, 0, 2, 0.00,60.00,Friday
8,462255730.44987357
3420,181644128.58654094
2,6, 1, 6, 0, 3, 0.00,60.00,Friday
8,372621466.5769108
3420,180017200.45888802
2,6, 1, 6, 0, 4, 0.00,60.00,Friday
8,380199942.89783907
3420,185953796.29158592
2,6, 1, 6, 0, 5, 0.00,60.00,Friday
8,381463691.1940503
3420,187072504.61121744
2,6, 1, 6, 0, 6, 0.00,60.00,Friday
8,383575886.7344705
3420,188654877.34965456
2,6, 1, 6, 0, 7, 0.00,60.00,Friday
8,381090024.738313
3420,212164742.28844282
2,6, 1, 6, 0, 8, 0.00,60.00,Friday
8,391390603.4224221
3420,211500658.49398103
2,6, 1, 6, 0, 9, 0.00,60.00,Friday
8,483004167.70364606
3420,212974234.84488064
2,6, 1, 6, 0,10, 0.00,60.00,Friday
8,483806755.67141354
3420,210996823.26815763
2,6, 1, 6, 0,11, 0.00,60.00,Friday
8,470915129.8821402
3420,201994528.91614878
2,6, 1, 6, 0,12, 0.00,60.00,Friday
8,464086755.7274614
3420,188788426.9523406
2,6, 1, 6, 0,13, 0.00,60.00,Friday
8,459206306.28126514
3420,177819922.1925212
2,6, 1, 6, 0,14, 0.00,60.00,Friday
8,462124370.0883738
3420,180542630.42700046
2,6, 1, 6, 0,15, 0.00,60.00,Friday
8,466788162.761036
3420,194458377.00338855
2,6, 1, 6, 0,16, 0.00,60.00,Friday
8,473481276.4013206
3420,204069449.00789338
2,6, 1, 6, 0,17, 0.00,60.00,Friday
8,466210212.79743016
3420,207064785.59670123
2,6, 1, 6, 0,18, 0.00,60.00,Friday
8,460098985.1345366
3420,208033364.2070955
2,6, 1, 6, 0,19, 0.00,60.00,Friday
8,453977643.0482229
3420,166513750.0523843
2,6, 1, 6, 0,20, 0.00,60.00,Friday
8,455845938.77239
3420,171973329.52597785
2,6, 1, 6, 0,21, 0.00,60.00,Friday
8,455730159.93348587
3420,176035831.8760505
2,6, 1, 6, 0,22, 0.00,60.00,Friday
8,461397827.5546097
3420,184145316.76737416
2,6, 1, 6, 0,23, 0.00,60.00,Friday
8,458924056.65086776
3420,180427756.4083052
2,6, 1, 6, 0,24, 0.00,60.00,Friday
8,454875169.6609016
3420,177050542.81821093
2,7, 1, 7, 0, 1, 0.00,60.00,Saturday
8,456934406.2982239
3420,200386581.92001864
2,7, 1, 7, 0, 2, 0.00,60.00,Saturday
8,457751195.0308885
3420,198283533.99069408
2,7, 1, 7, 0, 3, 0.00,60.00,Saturday
8,366566032.2654952
3420,165307513.32723397
2,7, 1, 7, 0, 4, 0.00,60.00,Saturday
8,362620626.7932958
3420,162963873.07403144
2,7, 1, 7, 0, 5, 0.00,60.00,Saturday
8,366522992.81312305
3420,169661046.56460503
2,7, 1, 7, 0, 6, 0.00,60.00,Saturday
8,365771635.7646624
3420,172102607.13753682
2,7, 1, 7, 0, 7, 0.00,60.00,Saturday
8,365468924.8264265
3420,172372453.8549583
2,7, 1, 7, 0, 8, 0.00,60.00,Saturday
8,362081174.6112116
3420,163386926.91819677
2,7, 1, 7, 0, 9, 0.00,60.00,Saturday
8,451387157.70529526
3420,153062503.41050428
2,7, 1, 7, 0,10, 0.00,60.00,Saturday
8,449888250.3662988
3420,149090531.2807825
2,7, 1, 7, 0,11, 0.00,60.00,Saturday
8,447323788.882163
3420,142026175.9502223
2,7, 1, 7, 0,12, 0.00,60.00,Saturday
8,443308657.0080829
3420,137201046.63992965
2,7, 1, 7, 0,13, 0.00,60.00,Saturday
8,437211230.92470163
3420,127636622.033116
2,7, 1, 7, 0,14, 0.00,60.00,Saturday
8,440810583.372427
3420,129466928.30762611
2,7, 1, 7, 0,15, 0.00,60.00,Saturday
8,445324470.88076615
3420,139819822.819434
2,7, 1, 7, 0,16, 0.00,60.00,Saturday
8,444977704.1592767
3420,139512705.5071043
2,7, 1, 7, 0,17, 0.00,60.00,Saturday
8,447475950.279642
3420,146208869.2865361
2,7, 1, 7, 0,18, 0.00,60.00,Saturday
8,444261257.20715266
3420,157042559.7315088
2,7, 1, 7, 0,19, 0.00,60.00,Saturday
8,443554648.7463282
3420,157770058.53341293
2,7, 1, 7, 0,20, 0.00,60.00,Saturday
8,443954896.0252745
3420,158366072.27370122
2,7, 1, 7, 0,21, 0.00,60.00,Saturday
8,445445794.0939164
3420,158724891.5074634
2,7, 1, 7, 0,22, 0.00,60.00,Saturday
8,442941519.6294724
3420,154145862.0220421
2,7, 1, 7, 0,23, 0.00,60.00,Saturday
8,442291703.5350892
3420,175347360.42443484
2,7, 1, 7, 0,24, 0.00,60.00,Saturday
8,444996989.2128942
3420,181180893.22080302
2,8, 1, 8, 0, 1, 0.00,60.00,Sunday
8,445165282.6341945
3420,140108797.10365394
2,8, 1, 8, 0, 2, 0.00,60.00,Sunday
8,445144143.17416346
3420,146073702.58559972
2,8, 1, 8, 0, 3, 0.00,60.00,Sunday
8,356096673.8314739
3420,148138850.7581349
2,8, 1, 8, 0, 4, 0.00,60.00,Sunday
8,354991175.1911649
3420,149972216.93132576
2,8, 1, 8, 0, 5, 0.00,60.00,Sunday
8,354970917.35392207
3420,150437954.94034612
2,8, 1, 8, 0, 6, 0.00,60.00,Sunday
8,353640502.9646777
3420,141610032.53649014
2,8, 1, 8, 0, 7, 0.00,60.00,Sunday
8,349779568.232046
3420,132861061.70686847
2,8, 1, 8, 0, 8, 0.00,60.00,Sunday
8,348519583.1072595
3420,128959996.93205312
2,8, 1, 8, 0, 9, 0.00,60.00,Sunday
8,442595357.31405354
3420,127832849.3517448
2,8, 1, 8, 0,10, 0.00,60.00,Sunday
8,443539147.76667094
3420,127698575.42604536
2,8, 1, 8, 0,11, 0.00,60.00,Sunday
8,440359690.5020512
3420,126086700.92060295
2,8, 1, 8, 0,12, 0.00,60.00,Sunday
8,435649112.959817
3420,114636601.37417626
2,8, 1, 8, 0,13, 0.00,60.00,Sunday
8,434388209.9342275
3420,115194502.73456898
2,8, 1, 8, 0,14, 0.00,60.00,Sunday
8,437411348.87876403
3420,120273458.13193229
2,8, 1, 8, 0,15, 0.00,60.00,Sunday
8,439991617.75923306
3420,127491504.70250964
2,8, 1, 8, 0,16, 0.00,60.00,Sunday
8,443591113.90859884
3420,133173465.73556906
2,8, 1, 8, 0,17, 0.00,60.00,Sunday
8,446045511.57518464
3420,144008015.46173236
2,8, 1, 8, 0,18, 0.00,60.00,Sunday
8,440297224.28588194
3420,150057847.74341744
2,8, 1, 8, 0,19, 0.00,60.00,Sunday
8,443661919.2371611
3420,156018087.7067432
2,8, 1, 8, 0,20, 0.00,60.00,Sunday
8,442864917.70271784
3420,156363247.5129844
2,8, 1, 8, 0,21, 0.00,60.00,Sunday
8,441761973.7638319
3420,151797117.23875257
2,8, 1, 8, 0,22, 0.00,60.00,Sunday
8,443138899.8339903
3420,152070984.82894364
2,8, 1, 8, 0,23, 0.00,60.00,Sunday
8,441930689.1570792
3420,152303073.2425225
2,8, 1, 8, 0,24, 0.00,60.00,Sunday
8,442039121.5783841
3420,152843498.61666632
2,9, 1, 9, 0, 1, 0.00,60.00,Monday
8,445672748.1302132
3420,147921424.29263863
2,9, 1, 9, 0, 2, 0.00,60.00,Monday
8,444433201.1392929
3420,148360105.97660974
2,9, 1, 9, 0, 3, 0.00,60.00,Monday
8,354247036.77541053
3420,149973385.9423481
2,9, 1, 9, 0, 4, 0.00,60.00,Monday
8,354499597.4932965
3420,150867141.82650214
2,9, 1, 9, 0, 5, 0.00,60.00,Monday
8,355981601.3166402
3420,151442926.63310164
2,9, 1, 9, 0, 6, 0.00,60.00,Monday
8,353454886.06169146
3420,147179969.62693793
2,9, 1, 9, 0, 7, 0.00,60.00,Monday
8,354141758.98279905
3420,173982654.61354694
2,9, 1, 9, 0, 8, 0.00,60.00,Monday
8,364378894.7460028
3420,169008158.7574331
2,9, 1, 9, 0, 9, 0.00,60.00,Monday
8,454877507.40230566
3420,159180781.18794346
2,9, 1, 9, 0,10, 0.00,60.00,Monday
8,455938087.5630618
3420,161365943.42787224
2,9, 1, 9, 0,11, 0.00,60.00,Monday
8,454420939.3971316
3420,152488522.6239953
2,9, 1, 9, 0,12, 0.00,60.00,Monday
8,450913468.31743616
3420,145772504.81923962
2,9, 1, 9, 0,13, 0.00,60.00,Monday
8,446273043.2770687
3420,139277502.16770214
2,9, 1, 9, 0,14, 0.00,60.00,Monday
8,448658323.246336
3420,133953275.31449334
2,9, 1, 9, 0,15, 0.00,60.00,Monday
8,448467447.2776443
3420,137634985.20558316
2,9, 1, 9, 0,16, 0.00,60.00,Monday
8,445166250.36718047
3420,124247656.38427998
2,9, 1, 9, 0,17, 0.00,60.00,Monday
8,436934498.6762437
3420,129424227.79141702
2,9, 1, 9, 0,18, 0.00,60.00,Monday
8,427677308.9497592
3420,128785083.72330776
2,9, 1, 9, 0,19, 0.00,60.00,Monday
8,426850084.4032427
3420,100012010.04109782
2,9, 1, 9, 0,20, 0.00,60.00,Monday
8,428020830.7710817
3420,100787283.36702533
2,9, 1, 9, 0,21, 0.00,60.00,Monday
8,425623743.84100026
3420,97967002.69278194
2,9, 1, 9, 0,22, 0.00,60.00,Monday
8,425559181.27674264
3420,99037209.46079871
2,9, 1, 9, 0,23, 0.00,60.00,Monday
8,429227814.6653907
3420,113715284.10708646
2,9, 1, 9, 0,24, 0.00,60.00,Monday
8,430582059.97806007
3420,113476369.5114696
2,10, 1,10, 0, 1, 0.00,60.00,Tuesday
8,430522628.25502455
3420,104529330.26623346
2,10, 1,10, 0, 2, 0.00,60.00,Tuesday
8,433236791.4325897
3420,113953594.81262392
2,10, 1,10, 0, 3, 0.00,60.00,Tuesday
8,341933983.15272963
3420,106822523.79366317
2,10, 1,10, 0, 4, 0.00,60.00,Tuesday
8,341910465.92128485
3420,111214188.96544027
2,10, 1,10, 0, 5, 0.00,60.00,Tuesday
8,343069614.31558335
3420,115064305.46154496
2,10, 1,10, 0, 6, 0.00,60.00,Tuesday
8,346226592.0589358
3420,121402209.47471727
2,10, 1,10, 0, 7, 0.00,60.00,Tuesday
8,348442938.5913165
3420,155153084.8199856
2,10, 1,10, 0, 8, 0.00,60.00,Tuesday
8,362055872.4932459
3420,168933753.439742
2,10, 1,10, 0, 9, 0.00,60.00,Tuesday
8,455562340.989173
3420,156397735.03527752
2,10, 1,10, 0,10, 0.00,60.00,Tuesday
8,455283057.8848868
3420,157193687.15508413
2,10, 1,10, 0,11, 0.00,60.00,Tuesday
8,448007970.46382356
3420,134306762.91353515
2,10, 1,10, 0,12, 0.00,60.00,Tuesday
8,443834204.9172991
3420,113802336.28301883
2,10, 1,10, 0,13, 0.00,60.00,Tuesday
8,438181153.63179094
3420,95201932.40983786
2,10, 1,10, 0,14, 0.00,60.00,Tuesday
8,440825649.8858141
3420,94667606.5965632
2,10, 1,10, 0,15, 0.00,60.00,Tuesday
8,442304364.9619588
3420,94923257.30784687
2,10, 1,10, 0,16, 0.00,60.00,Tuesday
8,441715162.8721278
3420,106082769.41543987
2,10, 1,10, 0,17, 0.00,60.00,Tuesday
8,431311897.87403286
3420,110200975.54177521
2,10, 1,10, 0,18, 0.00,60.00,Tuesday
8,423422513.581092
3420,110121985.26616487
2,10, 1,10, 0,19, 0.00,60.00,Tuesday
8,423602766.1624216
3420,80831146.46951935
2,10, 1,10, 0,20, 0.00,60.00,Tuesday
8,422376994.1747251
3420,81195600.36740601
2,10, 1,10, 0,21, 0.00,60.00,Tuesday
8,422345597.44456244
3420,81234118.74323463
2,10, 1,10, 0,22, 0.00,60.00,Tuesday
8,423635357.38576263
3420,82265378.97797583
2,10, 1,10, 0,23, 0.00,60.00,Tuesday
8,422383867.0725097
3420,83119677.3052286
2,10, 1,10, 0,24, 0.00,60.00,Tuesday
8,422351010.4010092
3420,83022838.13920818
2,11, 1,11, 0, 1, 0.00,60.00,Wednesday
8,427374704.30760527
3420,82973492.58949053
2,11, 1,11, 0, 2, 0.00,60.00,Wednesday
8,426083736.4886649
3420,82809066.69585118
2,11, 1,11, 0, 3, 0.00,60.00,Wednesday
8,335141305.5680202
3420,80149184.15451871
2,11, 1,11, 0, 4, 0.00,60.00,Wednesday
8,336398489.94425386
3420,80316936.31548873
2,11, 1,11, 0, 5, 0.00,60.00,Wednesday
8,334581897.1895543
3420,71926064.04504946
2,11, 1,11, 0, 6, 0.00,60.00,Wednesday
8,334971615.6960956
3420,80429269.96037227
2,11, 1,11, 0, 7, 0.00,60.00,Wednesday
8,337357069.2190509
3420,109104894.07837334
2,11, 1,11, 0, 8, 0.00,60.00,Wednesday
8,346746381.76298755
3420,106896188.06882918
2,11, 1,11, 0, 9, 0.00,60.00,Wednesday
8,440809023.17058986
3420,98933435.22616397
2,11, 1,11, 0,10, 0.00,60.00,Wednesday
8,442059503.5222619
3420,95919393.90863855
2,11, 1,11, 0,11, 0.00,60.00,Wednesday
8,440695783.46047306
3420,89370045.09035292
2,11, 1,11, 0,12, 0.00,60.00,Wednesday
8,440715805.5177594
3420,89673568.31673665
2,11, 1,11, 0,13, 0.00,60.00,Wednesday
8,438041744.056383
3420,89129441.18594521
2,11, 1,11, 0,14, 0.00,60.00,Wednesday
8,441895116.6909302
3420,84519495.8863604
2,11, 1,11, 0,15, 0.00,60.00,Wednesday
8,440638612.9080635
3420,84280669.06771207
2,11, 1,11, 0,16, 0.00,60.00,Wednesday
8,440719790.9416324
3420,88396947.21756774
2,11, 1,11, 0,17, 0.00,60.00,Wednesday
8,431160123.1449622
3420,89430908.7870284
2,11, 1,11, 0,18, 0.00,60.00,Wednesday
8,421693585.6676454
3420,80554878.73087749
2,11, 1,11, 0,19, 0.00,60.00,Wednesday
8,421141989.09249777
3420,58813878.902797
2,11, 1,11, 0,20, 0.00,60.00,Wednesday
8,422396926.63642263
3420,58624144.94201801
2,11, 1,11, 0,21, 0.00,60.00,Wednesday
8,421136339.6628813
3420,58544827.10327576
2,11, 1,11, 0,22, 0.00,60.00,Wednesday
8,421132872.4576915
3420,58379403.497321
2,11, 1,11, 0,23, 0.00,60.00,Wednesday
8,422388210.6627603
3420,58214176.14627417
2,11, 1,11, 0,24, 0.00,60.00,Wednesday
8,421124585.41177905
3420,57983338.546164796
2,12, 1,12, 0, 1, 0.00,60.00,Thursday
8,424937736.8496822
3420,57768713.39697691
2,12, 1,12, 0, 2, 0.00,60.00,Thursday
8,426192360.3962566
3420,57571626.20289454
2,12, 1,12, 0, 3, 0.00,60.00,Thursday
8,334291830.0209086
3420,58600145.43010689
2,12, 1,12, 0, 4, 0.00,60.00,Thursday
8,334295839.85370034
3420,58703071.93094164
2,12, 1,12, 0, 5, 0.00,60.00,Thursday
8,335557360.60692596
3420,58781645.90047198
2,12, 1,12, 0, 6, 0.00,60.00,Thursday
8,334300672.5452249
3420,58823394.147826836
2,12, 1,12, 0, 7, 0.00,60.00,Thursday
8,334888702.41679794
3420,81309114.32957469
2,12, 1,12, 0, 8, 0.00,60.00,Thursday
8,345650214.7055954
3420,75910872.97700508
2,12, 1,12, 0, 9, 0.00,60.00,Thursday
8,441583693.05263346
3420,76653724.71423647
2,12, 1,12, 0,10, 0.00,60.00,Thursday
8,440323260.70499057
3420,69121937.3912102
2,12, 1,12, 0,11, 0.00,60.00,Thursday
8,440258428.25631046
3420,64658651.46589325
2,12, 1,12, 0,12, 0.00,60.00,Thursday
8,441497278.97826016
3420,63067505.85887453
2,12, 1,12, 0,13, 0.00,60.00,Thursday
8,437552962.3934132
3420,61946230.776556894
2,12, 1,12, 0,14, 0.00,60.00,Thursday
8,440135637.28440446
3420,56694953.39558852
2,12, 1,12, 0,15, 0.00,60.00,Thursday
8,441399218.73128784
3420,56660993.11234034
2,12, 1,12, 0,16, 0.00,60.00,Thursday
8,440232824.0185793
3420,61409307.18463208
2,12, 1,12, 0,17, 0.00,60.00,Thursday
8,429324938.6801957
3420,62637785.601215445
2,12, 1,12, 0,18, 0.00,60.00,Thursday
8,422555093.4968733
3420,62144589.1169891
2,12, 1,12, 0,19, 0.00,60.00,Thursday
8,420899358.7890237
3420,47209157.824406
2,12, 1,12, 0,20, 0.00,60.00,Thursday
8,420898108.38209945
3420,47149292.750644706
2,12, 1,12, 0,21, 0.00,60.00,Thursday
8,422157160.8388364
3420,47156103.4025074
2,12, 1,12, 0,22, 0.00,60.00,Thursday
8,420897999.97994137
3420,47144195.49875384
2,12, 1,12, 0,23, 0.00,60.00,Thursday
8,420896224.7554035
3420,47059121.83342191
2,12, 1,12, 0,24, 0.00,60.00,Thursday
8,422153010.1637518
3420,46967403.7431231
2,13, 1,13, 0, 1, 0.00,60.00,Friday
8,424709675.5835784
3420,46858167.32269661
2,13, 1,13, 0, 2, 0.00,60.00,Friday
8,424708252.9918892
3420,46789820.3074403
2,13, 1,13, 0, 3, 0.00,60.00,Friday
8,335010921.0070956
3420,46705149.29778248
2,13, 1,13, 0, 4, 0.00,60.00,Friday
8,334331126.8844346
3420,47105106.79355672
2,13, 1,13, 0, 5, 0.00,60.00,Friday
8,334115275.32391113
3420,50374934.03825335
2,13, 1,13, 0, 6, 0.00,60.00,Friday
8,334310939.30942833
3420,59456245.26904465
2,13, 1,13, 0, 7, 0.00,60.00,Friday
8,336233664.14814603
3420,85001896.6657055
2,13, 1,13, 0, 8, 0.00,60.00,Friday
8,345598558.06681305
3420,76943454.38433342
2,13, 1,13, 0, 9, 0.00,60.00,Friday
8,440543833.75704825
3420,82511157.40261245
2,13, 1,13, 0,10, 0.00,60.00,Friday
8,441574776.7899381
3420,67944484.02716202
2,13, 1,13, 0,11, 0.00,60.00,Friday
8,439849294.05219626
3420,41556762.07397738
2,13, 1,13, 0,12, 0.00,60.00,Friday
8,439729891.5895073
3420,33678335.070668966
2,13, 1,13, 0,13, 0.00,60.00,Friday
8,438280730.8054494
3420,30408667.71345611
2,13, 1,13, 0,14, 0.00,60.00,Friday
8,439780837.58098507
3420,34408969.509350486
2,13, 1,13, 0,15, 0.00,60.00,Friday
8,439730451.5619894
3420,31665216.747218873
2,13, 1,13, 0,16, 0.00,60.00,Friday
8,441304172.9049758
3420,49719649.47386492
2,13, 1,13, 0,17, 0.00,60.00,Friday
8,429590766.08162
3420,75271035.75139461
2,13, 1,13, 0,18, 0.00,60.00,Friday
8,421687799.6753819
3420,80639193.80408742
2,13, 1,13, 0,19, 0.00,60.00,Friday
8,422665913.5195965
3420,71457614.1926621
2,13, 1,13, 0,20, 0.00,60.00,Friday
8,421341437.25421906
3420,68325297.70486517
2,13, 1,13, 0,21, 0.00,60.00,Friday
8,421458460.3899845
3420,73921314.70073652
2,13, 1,13, 0,22, 0.00,60.00,Friday
8,422738799.27063453
3420,74950806.11828966
2,13, 1,13, 0,23, 0.00,60.00,Friday
8,421591032.8051847
3420,80126035.88034147
2,13, 1,13, 0,24, 0.00,60.00,Friday
8,421622502.2454383
3420,81563161.69120504
2,14, 1,14, 0, 1, 0.00,60.00,Saturday
8,426927669.9144434
3420,118627907.77565333
2,14, 1,14, 0, 2, 0.00,60.00,Saturday
8,427726506.2022646
3420,105573540.43127683
2,14, 1,14, 0, 3, 0.00,60.00,Saturday
8,335570448.82429713
3420,82514191.74448442
2,14, 1,14, 0, 4, 0.00,60.00,Saturday
8,335951305.0430724
3420,83798843.79521416
2,14, 1,14, 0, 5, 0.00,60.00,Saturday
8,336742974.5329193
3420,81190247.19064566
2,14, 1,14, 0, 6, 0.00,60.00,Saturday
8,334992753.1496453
3420,78559058.40458575
2,14, 1,14, 0, 7, 0.00,60.00,Saturday
8,334562737.2303796
3420,71313914.40996812
2,14, 1,14, 0, 8, 0.00,60.00,Saturday
8,335914632.5879076
3420,75666215.88751835
2,14, 1,14, 0, 9, 0.00,60.00,Saturday
8,429442342.7257033
3420,71947341.33977301
2,14, 1,14, 0,10, 0.00,60.00,Saturday
8,429354588.05073726
3420,67813765.14783488
2,14, 1,14, 0,11, 0.00,60.00,Saturday
8,430334251.070007
3420,54655865.131258674
2,14, 1,14, 0,12, 0.00,60.00,Saturday
8,428812043.2588409
3420,42200724.155588955
2,14, 1,14, 0,13, 0.00,60.00,Saturday
8,426418033.92038924
3420,55369850.32162821
2,14, 1,14, 0,14, 0.00,60.00,Saturday
8,430187741.3903981
3420,47729192.14814775
2,14, 1,14, 0,15, 0.00,60.00,Saturday
8,428861144.30144644
3420,44520056.97010298
2,14, 1,14, 0,16, 0.00,60.00,Saturday
8,428787129.1744448
3420,41014403.49205862
2,14, 1,14, 0,17, 0.00,60.00,Saturday
8,430049774.23289454
3420,41204795.80571805
2,14, 1,14, 0,18, 0.00,60.00,Saturday
8,420771544.6648118
3420,41083695.08394408
2,14, 1,14, 0,19, 0.00,60.00,Saturday
8,420864807.449967
3420,45467525.72735001
2,14, 1,14, 0,20, 0.00,60.00,Saturday
8,420857612.94219196
3420,45129138.783556364
2,14, 1,14, 0,21, 0.00,60.00,Saturday
8,422114781.8560471
3420,45039340.42103226
2,14, 1,14, 0,22, 0.00,60.00,Saturday
8,420927442.40605694
3420,48422208.00737389
2,14, 1,14, 0,23, 0.00,60.00,Saturday
8,421619135.3576499
3420,75572710.38496159
2,14, 1,14, 0,24, 0.00,60.00,Saturday
8,422740026.4844421
3420,70083313.70276278
2,15, 1,15, 0, 1, 0.00,60.00,Sunday
8,424636371.326995
3420,43336849.420023866
2,15, 1,15, 0, 2, 0.00,60.00,Sunday
8,424634253.1862933
3420,43235691.07605307
2,15, 1,15, 0, 3, 0.00,60.00,Sunday
8,335224145.89362437
3420,43235642.92523243
2,15, 1,15, 0, 4, 0.00,60.00,Sunday
8,334043668.24774
3420,46911387.65203333
2,15, 1,15, 0, 5, 0.00,60.00,Sunday
8,334153435.88331586
3420,51957967.998183876
2,15, 1,15, 0, 6, 0.00,60.00,Sunday
8,335319876.31721437
3420,47602403.67452454
2,15, 1,15, 0, 7, 0.00,60.00,Sunday
8,334066721.47928965
3420,47812127.12536534
2,15, 1,15, 0, 8, 0.00,60.00,Sunday
8,334161168.82411134
3420,52262325.78109998
2,15, 1,15, 0, 9, 0.00,60.00,Sunday
8,430351232.8954192
3420,55360570.935155444
2,15, 1,15, 0,10, 0.00,60.00,Sunday
8,429010460.5962005
3420,51517246.311598554
2,15, 1,15, 0,11, 0.00,60.00,Sunday
8,429036919.97249615
3420,52771380.18798279
2,15, 1,15, 0,12, 0.00,60.00,Sunday
8,430277420.0511051
3420,51918104.270056464
2,15, 1,15, 0,13, 0.00,60.00,Sunday
8,426333505.878878
3420,51301336.87483202
2,15, 1,15, 0,14, 0.00,60.00,Sunday
8,429007832.44654876
3420,51387008.65244165
2,15, 1,15, 0,15, 0.00,60.00,Sunday
8,429021548.2036133
3420,52017816.417487174
2,15, 1,15, 0,16, 0.00,60.00,Sunday
8,430297309.55568373
3420,52794368.369191445
2,15, 1,15, 0,17, 0.00,60.00,Sunday
8,429054820.6871701
3420,53553846.78993033
2,15, 1,15, 0,18, 0.00,60.00,Sunday
8,420965347.4468588
3420,50137170.854851685
2,15, 1,15, 0,19, 0.00,60.00,Sunday
8,422226180.78444594
3420,50220213.23538988
2,15, 1,15, 0,20, 0.00,60.00,Sunday
8,420969136.9323872
3420,50299738.83450494
2,15, 1,15, 0,21, 0.00,60.00,Sunday
8,420873664.49666804
3420,45822028.55145283
2,15, 1,15, 0,22, 0.00,60.00,Sunday
8,422132910.20043856
3420,45837465.82849662
2,15, 1,15, 0,23, 0.00,60.00,Sunday
8,420873381.43193597
3420,45802234.76322415
2,15, 1,15, 0,24, 0.00,60.00,Sunday
8,420972061.82726973
3420,50421652.628743485
2,16, 1,16, 0, 1, 0.00,60.00,Monday
8,426124097.1283347
3420,53985429.52327432
2,16, 1,16, 0, 2, 0.00,60.00,Monday
8,424867766.71061736
3420,54098679.34899535
2,16, 1,16, 0, 3, 0.00,60.00,Monday
8,334237117.1136486
3420,55644865.8583064
2,16, 1,16, 0, 4, 0.00,60.00,Monday
8,335502326.8337305
3420,55918882.76351671