Program Version,EnergyPlus, Version 23.1.0-87ed9199d4, YMD=2023.06.20 15:11
1,5,Environment Title[],Latitude[deg],Longitude[deg],Time Zone[],Elevation[m]
2,8,Day of Simulation[],Month[],Day of Month[],DST Indicator[1=yes 0=no],Hour[],StartMinute[],EndMinute[],DayType
3,5,Cumulative Day of Simulation[],Month[],Day of Month[],DST Indicator[1=yes 0=no],DayType  ! When Daily Report Variables Requested
4,2,Cumulative Days of Simulation[],Month[]  ! When Monthly Report Variables Requested
5,1,Cumulative Days of Simulation[] ! When Run Period Report Variables Requested
6,1,Calendar Year of Simulation[] ! When Annual Report Variables Requested
8,1,Electricity:Facility [J] !TimeStep
2451,1,NaturalGas:Facility [J] !TimeStep
End of Data Dictionary
1,RUN PERIOD 1,  57.75,-152.50,  -9.00,   5.00
2,1, 1, 1, 1, 1, 0.00,60.00,Sunday
8,37522028.6749951
2451,43041171.65714923
2,1, 1, 1, 1, 2, 0.00,60.00,Sunday
8,37978214.21643047
2451,42872172.34288627
2,1, 1, 1, 1, 3, 0.00,60.00,Sunday
8,35933569.860861816
2451,40446955.64347108
2,1, 1, 1, 1, 4, 0.00,60.00,Sunday
8,32578868.34986306
2451,36337240.725573756
2,1, 1, 1, 1, 5, 0.00,60.00,Sunday
8,30529892.927574474
2451,36285562.56512556
2,1, 1, 1, 1, 6, 0.00,60.00,Sunday
8,27504384.88205883
2451,30978708.46320359
2,1, 1, 1, 1, 7, 0.00,60.00,Sunday
8,31798589.001920845
2451,35392240.304968506
2,1, 1, 1, 1, 8, 0.00,60.00,Sunday
8,31583597.49329726
2451,36892319.716274895
2,1, 1, 1, 1, 9, 0.00,60.00,Sunday
8,25952851.94402171
2451,28975568.047407866
2,1, 1, 1, 1,10, 0.00,60.00,Sunday
8,31363463.12108924
2451,35542527.15887933
2,1, 1, 1, 1,11, 0.00,60.00,Sunday
8,25912613.07064004
2451,37072658.8520849
2,1, 1, 1, 1,12, 0.00,60.00,Sunday
8,25855910.019390568
2451,37845517.95086265
2,1, 1, 1, 1,13, 0.00,60.00,Sunday
8,28117178.980720878
2451,40144996.44996859
2,1, 1, 1, 1,14, 0.00,60.00,Sunday
8,26001851.58487524
2451,39175199.038125545
2,1, 1, 1, 1,15, 0.00,60.00,Sunday
8,25804002.294066127
2451,37250071.42717504
2,1, 1, 1, 1,16, 0.00,60.00,Sunday
8,26861115.938665252
2451,36265441.70470975
2,1, 1, 1, 1,17, 0.00,60.00,Sunday
8,32297627.985992026
2451,38523356.29369408
2,1, 1, 1, 1,18, 0.00,60.00,Sunday
8,34691754.67018128
2451,41876875.70950023
2,1, 1, 1, 1,19, 0.00,60.00,Sunday
8,40465857.605851196
2451,48055337.64903149
2,1, 1, 1, 1,20, 0.00,60.00,Sunday
8,42807050.38040174
2451,52552301.653388955
2,1, 1, 1, 1,21, 0.00,60.00,Sunday
8,35863105.399389155
2451,42908826.55420603
2,1, 1, 1, 1,22, 0.00,60.00,Sunday
8,33610780.20879627
2451,39815983.39411801
2,1, 1, 1, 1,23, 0.00,60.00,Sunday
8,30086304.71578365
2451,32606836.972049575
2,1, 1, 1, 1,24, 0.00,60.00,Sunday
8,114087302.52978395
2451,31773774.520658143
2,2, 1, 2, 1, 1, 0.00,60.00,Monday
8,120721842.9353885
2451,40780232.46299511
2,2, 1, 2, 1, 2, 0.00,60.00,Monday
8,117959924.4363127
2451,35574150.184562676
2,2, 1, 2, 1, 3, 0.00,60.00,Monday
8,118915993.1071802
2451,38274209.499179445
2,2, 1, 2, 1, 4, 0.00,60.00,Monday
8,126144453.43895212
2451,48156373.23105734
2,2, 1, 2, 1, 5, 0.00,60.00,Monday
8,128804234.39488901
2451,49852331.73735004
2,2, 1, 2, 1, 6, 0.00,60.00,Monday
8,126250854.77596657
2451,62584993.93511556
2,2, 1, 2, 1, 7, 0.00,60.00,Monday
8,142577310.186734
2451,66597094.202412486
2,2, 1, 2, 1, 8, 0.00,60.00,Monday
8,413507184.4974908
2451,55110349.15784254
2,2, 1, 2, 1, 9, 0.00,60.00,Monday
8,405454365.6603636
2451,39837756.55206253
2,2, 1, 2, 1,10, 0.00,60.00,Monday
8,404627373.4294311
2451,36399633.77676991
2,2, 1, 2, 1,11, 0.00,60.00,Monday
8,402976758.63023615
2451,36804649.12771208
2,2, 1, 2, 1,12, 0.00,60.00,Monday
8,136825771.2891093
2451,41602999.16464596
2,2, 1, 2, 1,13, 0.00,60.00,Monday
8,401257972.6408584
2451,35382688.14007772
2,2, 1, 2, 1,14, 0.00,60.00,Monday
8,401021966.0028538
2451,28218862.44561012
2,2, 1, 2, 1,15, 0.00,60.00,Monday
8,399889238.1672438
2451,29940071.340535454
2,2, 1, 2, 1,16, 0.00,60.00,Monday
8,397207102.5310718
2451,32535257.26154334
2,2, 1, 2, 1,17, 0.00,60.00,Monday
8,125749022.02064304
2451,43647609.30442712
2,2, 1, 2, 1,18, 0.00,60.00,Monday
8,108579479.21217945
2451,15895321.685540956
2,2, 1, 2, 1,19, 0.00,60.00,Monday
8,111471882.4067714
2451,22797544.137392133
2,2, 1, 2, 1,20, 0.00,60.00,Monday
8,115414292.46809746
2451,28251144.09555013
2,2, 1, 2, 1,21, 0.00,60.00,Monday
8,120680041.03685509
2451,33811550.021485396
2,2, 1, 2, 1,22, 0.00,60.00,Monday
8,116917068.13282198
2451,31813352.45135577
2,2, 1, 2, 1,23, 0.00,60.00,Monday
8,120233410.20829773
2451,36116365.82580749
2,2, 1, 2, 1,24, 0.00,60.00,Monday
8,118176320.27887294
2451,33963332.892334566
2,3, 1, 3, 1, 1, 0.00,60.00,Tuesday
8,120711286.9330526
2451,38380914.04502374
2,3, 1, 3, 1, 2, 0.00,60.00,Tuesday
8,119447943.93299362
2451,37067728.392694995
2,3, 1, 3, 1, 3, 0.00,60.00,Tuesday
8,121726891.55893521
2451,38310805.917788714
2,3, 1, 3, 1, 4, 0.00,60.00,Tuesday
8,117556527.3628272
2451,35225249.50520133
2,3, 1, 3, 1, 5, 0.00,60.00,Tuesday
8,117687353.92200382
2451,35303633.991584785
2,3, 1, 3, 1, 6, 0.00,60.00,Tuesday
8,126987874.34397383
2451,59365564.61714749
2,3, 1, 3, 1, 7, 0.00,60.00,Tuesday
8,136297949.95063964
2451,57775987.83253153
2,3, 1, 3, 1, 8, 0.00,60.00,Tuesday
8,408274965.46889967
2451,47678425.73448088
2,3, 1, 3, 1, 9, 0.00,60.00,Tuesday
8,411088226.6657708
2451,45557593.34061615
2,3, 1, 3, 1,10, 0.00,60.00,Tuesday
8,406613921.1224311
2451,39074140.91123989
2,3, 1, 3, 1,11, 0.00,60.00,Tuesday
8,401977115.56866604
2451,35110702.145016804
2,3, 1, 3, 1,12, 0.00,60.00,Tuesday
8,132797966.31943996
2451,32558452.24382186
2,3, 1, 3, 1,13, 0.00,60.00,Tuesday
8,400689781.8009268
2451,24784587.058612157
2,3, 1, 3, 1,14, 0.00,60.00,Tuesday
8,399588834.4179119
2451,25481041.26203142
2,3, 1, 3, 1,15, 0.00,60.00,Tuesday
8,399313362.6812259
2451,25839199.830991574
2,3, 1, 3, 1,16, 0.00,60.00,Tuesday
8,396100859.6005616
2451,18782167.839239836
2,3, 1, 3, 1,17, 0.00,60.00,Tuesday
8,119850937.08834404
2451,32847970.17589466
2,3, 1, 3, 1,18, 0.00,60.00,Tuesday
8,106689750.26501113
2451,17036644.778946795
2,3, 1, 3, 1,19, 0.00,60.00,Tuesday
8,107895177.3768957
2451,17720314.859379593
2,3, 1, 3, 1,20, 0.00,60.00,Tuesday
8,107489263.50834166
2451,19703878.448883746
2,3, 1, 3, 1,21, 0.00,60.00,Tuesday
8,105405976.1122645
2451,16330785.289377645
2,3, 1, 3, 1,22, 0.00,60.00,Tuesday
8,107150491.73113558
2451,18419508.400839433
2,3, 1, 3, 1,23, 0.00,60.00,Tuesday
8,112443450.12918009
2451,28572989.221540935
2,3, 1, 3, 1,24, 0.00,60.00,Tuesday
8,111060078.67340806
2451,27760034.414301362
2,4, 1, 4, 1, 1, 0.00,60.00,Wednesday
8,115593936.93102495
2451,31954283.420642007
2,4, 1, 4, 1, 2, 0.00,60.00,Wednesday
8,118082613.40085138
2451,36575152.61007678
2,4, 1, 4, 1, 3, 0.00,60.00,Wednesday
8,122978787.36430092
2451,42283551.98928553
2,4, 1, 4, 1, 4, 0.00,60.00,Wednesday
8,122532211.4500063
2451,40364843.97642045
2,4, 1, 4, 1, 5, 0.00,60.00,Wednesday
8,117859309.34239317
2451,36264671.56954116
2,4, 1, 4, 1, 6, 0.00,60.00,Wednesday
8,123037977.44915473
2451,56410220.848569185
2,4, 1, 4, 1, 7, 0.00,60.00,Wednesday
8,134293210.5772012
2451,53982529.369434424
2,4, 1, 4, 1, 8, 0.00,60.00,Wednesday
8,406612284.3342103
2451,44198238.64137354
2,4, 1, 4, 1, 9, 0.00,60.00,Wednesday
8,405642391.2194605
2451,38195910.89851874
2,4, 1, 4, 1,10, 0.00,60.00,Wednesday
8,405610051.9205564
2451,37407326.93112739
2,4, 1, 4, 1,11, 0.00,60.00,Wednesday
8,401279809.87308866
2451,28419844.773337223
2,4, 1, 4, 1,12, 0.00,60.00,Wednesday
8,130050588.14148083
2451,26641484.430312913
2,4, 1, 4, 1,13, 0.00,60.00,Wednesday
8,398747266.21904194
2451,21595943.50853272
2,4, 1, 4, 1,14, 0.00,60.00,Wednesday
8,399813994.3969023
2451,16533104.978334151
2,4, 1, 4, 1,15, 0.00,60.00,Wednesday
8,398941717.425422
2451,25690482.29548173
2,4, 1, 4, 1,16, 0.00,60.00,Wednesday
8,396066147.2708852
2451,27555250.419813663
2,4, 1, 4, 1,17, 0.00,60.00,Wednesday
8,120800562.12463427
2451,31433385.00545203
2,4, 1, 4, 1,18, 0.00,60.00,Wednesday
8,108046979.02004772
2451,20750521.167225335
2,4, 1, 4, 1,19, 0.00,60.00,Wednesday
8,106142516.99210379
2451,17467362.80528448
2,4, 1, 4, 1,20, 0.00,60.00,Wednesday
8,107337238.23480895
2451,18384554.579434693
2,4, 1, 4, 1,21, 0.00,60.00,Wednesday
8,116459483.34356302
2451,35716439.029392675
2,4, 1, 4, 1,22, 0.00,60.00,Wednesday
8,122211203.08025838
2451,41680991.99442771
2,4, 1, 4, 1,23, 0.00,60.00,Wednesday
8,117979170.0161773
2451,35320916.013797075
2,4, 1, 4, 1,24, 0.00,60.00,Wednesday
8,125664740.71128479
2451,47833507.10096391
2,5, 1, 5, 1, 1, 0.00,60.00,Thursday
8,127781690.71032542
2451,49675500.58237927
2,5, 1, 5, 1, 2, 0.00,60.00,Thursday
8,123239836.71807458
2451,43750037.500884436
2,5, 1, 5, 1, 3, 0.00,60.00,Thursday
8,128702480.47893922
2451,48416914.52221234
2,5, 1, 5, 1, 4, 0.00,60.00,Thursday
8,132590139.13527797
2451,54415647.35445976
2,5, 1, 5, 1, 5, 0.00,60.00,Thursday
8,112005103.66382635
2451,29813337.331967685
2,5, 1, 5, 1, 6, 0.00,60.00,Thursday
8,137423488.8362633
2451,71955554.67189598
2,5, 1, 5, 1, 7, 0.00,60.00,Thursday
8,143580782.71383527
2451,64752100.47830973
2,5, 1, 5, 1, 8, 0.00,60.00,Thursday
8,423264487.65373665
2451,65251744.96678736
2,5, 1, 5, 1, 9, 0.00,60.00,Thursday
8,445295956.4891832
2451,85411998.95211971
2,5, 1, 5, 1,10, 0.00,60.00,Thursday
8,436754181.3275933
2451,76996539.34674847
2,5, 1, 5, 1,11, 0.00,60.00,Thursday
8,433606384.15528035
2451,76875675.38779372
2,5, 1, 5, 1,12, 0.00,60.00,Thursday
8,164267607.08752427
2451,69721508.50513417
2,5, 1, 5, 1,13, 0.00,60.00,Thursday
8,426440121.76006675
2451,68334827.49459775
2,5, 1, 5, 1,14, 0.00,60.00,Thursday
8,442348831.5998823
2451,86984154.86342365
2,5, 1, 5, 1,15, 0.00,60.00,Thursday
8,445081121.70352834
2451,89016172.9450627
2,5, 1, 5, 1,16, 0.00,60.00,Thursday
8,437834528.4267443
2451,85352713.30692978
2,5, 1, 5, 1,17, 0.00,60.00,Thursday
8,183952458.75184876
2451,103171611.05729344
2,5, 1, 5, 1,18, 0.00,60.00,Thursday
8,157124903.3533065
2451,68028539.1146345
2,5, 1, 5, 1,19, 0.00,60.00,Thursday
8,162402538.86342642
2451,79153926.10795626
2,5, 1, 5, 1,20, 0.00,60.00,Thursday
8,146974292.19054765
2451,63150693.14323732
2,5, 1, 5, 1,21, 0.00,60.00,Thursday
8,137910955.07201108
2451,54119909.61655267
2,5, 1, 5, 1,22, 0.00,60.00,Thursday
8,139036748.06098023
2451,55256846.964769006
2,5, 1, 5, 1,23, 0.00,60.00,Thursday
8,138306755.21768603
2451,56369115.9209538
2,5, 1, 5, 1,24, 0.00,60.00,Thursday
8,143158294.64637774
2451,63302044.2418729
2,6, 1, 6, 1, 1, 0.00,60.00,Friday
8,152925752.8503203
2451,72932602.32088439
2,6, 1, 6, 1, 2, 0.00,60.00,Friday
8,147791639.70940614
2451,68687587.4995828
2,6, 1, 6, 1, 3, 0.00,60.00,Friday
8,144344146.14006618
2451,65159624.08850682
2,6, 1, 6, 1, 4, 0.00,60.00,Friday
8,135344407.18708774
2451,53871227.32154995
2,6, 1, 6, 1, 5, 0.00,60.00,Friday
8,126153636.8024035
2451,45085260.558936074
2,6, 1, 6, 1, 6, 0.00,60.00,Friday
8,134333752.99523616
2451,69374334.38694194
2,6, 1, 6, 1, 7, 0.00,60.00,Friday
8,164161788.1455292
2451,85921423.00817207
2,6, 1, 6, 1, 8, 0.00,60.00,Friday
8,424338508.2723817
2451,65480313.050039865
2,6, 1, 6, 1, 9, 0.00,60.00,Friday
8,424996363.1163396
2451,62524974.69685106
2,6, 1, 6, 1,10, 0.00,60.00,Friday
8,416733604.50068074
2451,51312450.71607283
2,6, 1, 6, 1,11, 0.00,60.00,Friday
8,431850749.323175
2451,73005975.05498026
2,6, 1, 6, 1,12, 0.00,60.00,Friday
8,165360237.3177497
2451,70700236.05733821
2,6, 1, 6, 1,13, 0.00,60.00,Friday
8,431194049.992108
2451,70837800.33720954
2,6, 1, 6, 1,14, 0.00,60.00,Friday
8,428200024.7082673
2451,69092571.62510845
2,6, 1, 6, 1,15, 0.00,60.00,Friday
8,429259634.1822237
2451,70426633.13001975
2,6, 1, 6, 1,16, 0.00,60.00,Friday
8,443616183.2483259
2451,89264415.92412563
2,6, 1, 6, 1,17, 0.00,60.00,Friday
8,172699795.67214423
2451,95351367.70923306
2,6, 1, 6, 1,18, 0.00,60.00,Friday
8,147766092.38383758
2451,57984337.35724534
2,6, 1, 6, 1,19, 0.00,60.00,Friday
8,161987171.73402137
2451,77780849.6808059
2,6, 1, 6, 1,20, 0.00,60.00,Friday
8,164401997.4301242
2451,80795506.25347148
2,6, 1, 6, 1,21, 0.00,60.00,Friday
8,153300844.32740706
2451,71119405.58747315
2,6, 1, 6, 1,22, 0.00,60.00,Friday
8,167053433.21666875
2451,87185604.18650192
2,6, 1, 6, 1,23, 0.00,60.00,Friday
8,166820813.53213716
2451,86361520.6559035
2,6, 1, 6, 1,24, 0.00,60.00,Friday
8,149922267.24169806
2451,70691172.8011495
2,7, 1, 7, 1, 1, 0.00,60.00,Saturday
8,161277241.8596013
2451,83897492.17276165
2,7, 1, 7, 1, 2, 0.00,60.00,Saturday
8,159979058.99098864
2451,81183187.43624875
2,7, 1, 7, 1, 3, 0.00,60.00,Saturday
8,156599887.4691264
2451,78946451.52522911
2,7, 1, 7, 1, 4, 0.00,60.00,Saturday
8,146318676.44156313
2451,67956876.98460245
2,7, 1, 7, 1, 5, 0.00,60.00,Saturday
8,156748947.13048938
2451,78020034.38243765
2,7, 1, 7, 1, 6, 0.00,60.00,Saturday
8,163184963.1214566
2451,102217300.40253626
2,7, 1, 7, 1, 7, 0.00,60.00,Saturday
8,175122642.36053753
2451,100377094.17705098
2,7, 1, 7, 1, 8, 0.00,60.00,Saturday
8,437804225.5191408
2451,80598552.07233873
2,7, 1, 7, 1, 9, 0.00,60.00,Saturday
8,433384002.016933
2451,73972457.08264934
2,7, 1, 7, 1,10, 0.00,60.00,Saturday
8,422539350.3671634
2451,61013772.74466263
2,7, 1, 7, 1,11, 0.00,60.00,Saturday
8,414072453.0742049
2451,53212263.46021438
2,7, 1, 7, 1,12, 0.00,60.00,Saturday
8,154255392.15541735
2451,60168785.1965085
2,7, 1, 7, 1,13, 0.00,60.00,Saturday
8,418321573.9284467
2451,59656775.56880188
2,7, 1, 7, 1,14, 0.00,60.00,Saturday
8,417043421.6139708
2451,58127917.11457819
2,7, 1, 7, 1,15, 0.00,60.00,Saturday
8,417052199.3818994
2451,56795338.75454569
2,7, 1, 7, 1,16, 0.00,60.00,Saturday
8,412068072.6301095
2451,39456735.0842576
2,7, 1, 7, 1,17, 0.00,60.00,Saturday
8,144875824.1711735
2451,49294379.71096376
2,7, 1, 7, 1,18, 0.00,60.00,Saturday
8,138296436.8482292
2451,51378637.59661786
2,7, 1, 7, 1,19, 0.00,60.00,Saturday
8,139870366.63671175
2451,56672042.03072623
2,7, 1, 7, 1,20, 0.00,60.00,Saturday
8,145204880.05062467
2451,63692550.627998754
2,7, 1, 7, 1,21, 0.00,60.00,Saturday
8,149621101.9215681
2451,68153931.37820196
2,7, 1, 7, 1,22, 0.00,60.00,Saturday
8,144555787.576876
2451,64502619.76873609
2,7, 1, 7, 1,23, 0.00,60.00,Saturday
8,145729498.8504718
2451,66442528.852569684
2,7, 1, 7, 1,24, 0.00,60.00,Saturday
8,60998428.16758528
2451,70195129.43999608
2,8, 1, 8, 1, 1, 0.00,60.00,Sunday
8,60506414.707243174
2451,71323431.24216275
2,8, 1, 8, 1, 2, 0.00,60.00,Sunday
8,60621190.46595043
2451,71410720.34548606
2,8, 1, 8, 1, 3, 0.00,60.00,Sunday
8,57551125.93780333
2451,66354862.968117274
2,8, 1, 8, 1, 4, 0.00,60.00,Sunday
8,54545356.53342161
2451,64333481.39315593
2,8, 1, 8, 1, 5, 0.00,60.00,Sunday
8,52581108.61780698
2451,62084209.64179703
2,8, 1, 8, 1, 6, 0.00,60.00,Sunday
8,48750465.4246042
2451,55327146.96297244
2,8, 1, 8, 1, 7, 0.00,60.00,Sunday
8,59135266.26193239
2451,70157592.88872394
2,8, 1, 8, 1, 8, 0.00,60.00,Sunday
8,57673762.29122015
2451,68832748.6218033
2,8, 1, 8, 1, 9, 0.00,60.00,Sunday
8,47646059.53822996
2451,56493152.31456244
2,8, 1, 8, 1,10, 0.00,60.00,Sunday
8,52152575.20886146
2451,60520778.25894447
2,8, 1, 8, 1,11, 0.00,60.00,Sunday
8,46068378.993586905
2451,57934981.245495655
2,8, 1, 8, 1,12, 0.00,60.00,Sunday
8,35380076.51105614
2451,45122676.26349317
2,8, 1, 8, 1,13, 0.00,60.00,Sunday
8,32979478.78646288
2451,40950157.03981796
2,8, 1, 8, 1,14, 0.00,60.00,Sunday
8,39790288.613553025
2451,50803776.07627765
2,8, 1, 8, 1,15, 0.00,60.00,Sunday
8,47010027.72843712
2451,59153271.35060077
2,8, 1, 8, 1,16, 0.00,60.00,Sunday
8,48447167.31863033
2451,59021286.282983914
2,8, 1, 8, 1,17, 0.00,60.00,Sunday
8,54521352.88083937
2451,66945788.4313879
2,8, 1, 8, 1,18, 0.00,60.00,Sunday
8,69298755.57892975
2451,79149856.37508163
2,8, 1, 8, 1,19, 0.00,60.00,Sunday
8,73148190.56093195
2451,81450870.96725938
2,8, 1, 8, 1,20, 0.00,60.00,Sunday
8,70203721.013086
2451,79239054.76290566
2,8, 1, 8, 1,21, 0.00,60.00,Sunday
8,66442636.64455722
2451,75181810.92339212
2,8, 1, 8, 1,22, 0.00,60.00,Sunday
8,67638422.66640592
2451,75122466.95822673
2,8, 1, 8, 1,23, 0.00,60.00,Sunday
8,49338439.690249234
2451,55345794.16778191
2,8, 1, 8, 1,24, 0.00,60.00,Sunday
8,144244639.06130257
2451,65755179.757583424
2,9, 1, 9, 1, 1, 0.00,60.00,Monday
8,143704216.02537522
2451,64220984.60485784
2,9, 1, 9, 1, 2, 0.00,60.00,Monday
8,144279030.39487073
2451,66498661.127968475
2,9, 1, 9, 1, 3, 0.00,60.00,Monday
8,144224545.7603541
2451,66520607.07879805
2,9, 1, 9, 1, 4, 0.00,60.00,Monday
8,142419625.35831445
2451,64460822.75219164
2,9, 1, 9, 1, 5, 0.00,60.00,Monday
8,131709476.94749473
2451,50334032.82180558
2,9, 1, 9, 1, 6, 0.00,60.00,Monday
8,144433727.6023694
2451,82782571.42614914
2,9, 1, 9, 1, 7, 0.00,60.00,Monday
8,155970027.6851971
2451,81897009.2150437
2,9, 1, 9, 1, 8, 0.00,60.00,Monday
8,421460556.3984591
2451,62543142.25061008
2,9, 1, 9, 1, 9, 0.00,60.00,Monday
8,418078760.45672345
2451,56897005.508072376
2,9, 1, 9, 1,10, 0.00,60.00,Monday
8,418292023.0314216
2451,56274286.648925096
2,9, 1, 9, 1,11, 0.00,60.00,Monday
8,413231103.9430327
2451,53155823.38094858
2,9, 1, 9, 1,12, 0.00,60.00,Monday
8,141822820.40126905
2451,46025990.87319539
2,9, 1, 9, 1,13, 0.00,60.00,Monday
8,407065720.6279804
2451,47008753.24389696
2,9, 1, 9, 1,14, 0.00,60.00,Monday
8,405307227.1296304
2451,41571811.76771134
2,9, 1, 9, 1,15, 0.00,60.00,Monday
8,410799844.86647874
2451,53655458.70676599
2,9, 1, 9, 1,16, 0.00,60.00,Monday
8,404695904.35623693
2451,50180419.495179236
2,9, 1, 9, 1,17, 0.00,60.00,Monday
8,132939286.34892741
2451,53294547.33939167
2,9, 1, 9, 1,18, 0.00,60.00,Monday
8,127014528.42335728
2451,39714778.226887316
2,9, 1, 9, 1,19, 0.00,60.00,Monday
8,120642609.76951574
2451,33834581.11618494
2,9, 1, 9, 1,20, 0.00,60.00,Monday
8,118571721.78592335
2451,30794571.965284258
2,9, 1, 9, 1,21, 0.00,60.00,Monday
8,115847014.33870587
2451,30428909.07792241
2,9, 1, 9, 1,22, 0.00,60.00,Monday
8,112339894.98647684
2451,26781370.43469605
2,9, 1, 9, 1,23, 0.00,60.00,Monday
8,116024710.94875
2451,31555796.670246605
2,9, 1, 9, 1,24, 0.00,60.00,Monday
8,116294776.20168436
2451,32061535.92057628
2,10, 1,10, 1, 1, 0.00,60.00,Tuesday
8,113862708.1848911
2451,31069492.778630942
2,10, 1,10, 1, 2, 0.00,60.00,Tuesday
8,115201251.08248194
2451,32628890.438705612
2,10, 1,10, 1, 3, 0.00,60.00,Tuesday
8,115709233.24861883
2451,32073671.84064356
2,10, 1,10, 1, 4, 0.00,60.00,Tuesday
8,113294716.13652684
2451,30607001.827192597
2,10, 1,10, 1, 5, 0.00,60.00,Tuesday
8,107540924.62450095
2451,23252865.680532124
2,10, 1,10, 1, 6, 0.00,60.00,Tuesday
8,124545944.94797754
2451,56336244.345161006
2,10, 1,10, 1, 7, 0.00,60.00,Tuesday
8,123965601.5446976
2451,40845393.19596046
2,10, 1,10, 1, 8, 0.00,60.00,Tuesday
8,405890990.9124032
2451,44934980.00917261
2,10, 1,10, 1, 9, 0.00,60.00,Tuesday
8,407759979.0667772
2451,40576186.01638181
2,10, 1,10, 1,10, 0.00,60.00,Tuesday
8,404774845.9443185
2451,34522293.74376311
2,10, 1,10, 1,11, 0.00,60.00,Tuesday
8,401238177.628743
2451,33925468.847044006
2,10, 1,10, 1,12, 0.00,60.00,Tuesday
8,132923144.20652314
2451,31980227.59877758
2,10, 1,10, 1,13, 0.00,60.00,Tuesday
8,399882197.30064595
2451,28090203.808166455
2,10, 1,10, 1,14, 0.00,60.00,Tuesday
8,399207268.00742173
2451,24468342.65758662
2,10, 1,10, 1,15, 0.00,60.00,Tuesday
8,399791055.25868255
2451,22717627.580870986
2,10, 1,10, 1,16, 0.00,60.00,Tuesday
8,395787433.1087797
2451,26238267.545902453
2,10, 1,10, 1,17, 0.00,60.00,Tuesday
8,116895155.12134038
2451,34024792.26633341
2,10, 1,10, 1,18, 0.00,60.00,Tuesday
8,106036677.98252821
2451,15712997.745560441
2,10, 1,10, 1,19, 0.00,60.00,Tuesday
8,108045453.300839
2451,19571923.466184158
2,10, 1,10, 1,20, 0.00,60.00,Tuesday
8,107416433.17145883
2451,21403093.223558925
2,10, 1,10, 1,21, 0.00,60.00,Tuesday
8,107335604.17562723
2451,21490025.961260673
2,10, 1,10, 1,22, 0.00,60.00,Tuesday
8,108267070.05874297
2451,21335442.10782639
2,10, 1,10, 1,23, 0.00,60.00,Tuesday
8,108760369.93882588
2451,24325066.900978297
2,10, 1,10, 1,24, 0.00,60.00,Tuesday
8,106580487.8715531
2451,22970381.893697124
2,11, 1,11, 1, 1, 0.00,60.00,Wednesday
8,109203139.31356375
2451,25071955.126319602
2,11, 1,11, 1, 2, 0.00,60.00,Wednesday
8,104169051.94219655
2451,18902980.90259257
2,11, 1,11, 1, 3, 0.00,60.00,Wednesday
8,104167205.70449716
2451,19079519.552769557
2,11, 1,11, 1, 4, 0.00,60.00,Wednesday
8,105427027.17443971
2451,19261532.869345438
2,11, 1,11, 1, 5, 0.00,60.00,Wednesday
8,104177635.43121621
2451,19064126.544977456
2,11, 1,11, 1, 6, 0.00,60.00,Wednesday
8,109642250.64601362
2451,38208784.93849793
2,11, 1,11, 1, 7, 0.00,60.00,Wednesday
8,122253636.60281026
2451,34859377.52035536
2,11, 1,11, 1, 8, 0.00,60.00,Wednesday
8,400350463.47830516
2451,29863870.10179046
2,11, 1,11, 1, 9, 0.00,60.00,Wednesday
8,403656240.6019372
2451,33448413.09566074
2,11, 1,11, 1,10, 0.00,60.00,Wednesday
8,404198522.73404145
2451,28483916.46531278
2,11, 1,11, 1,11, 0.00,60.00,Wednesday
8,398726207.6306999
2451,24790242.554194983
2,11, 1,11, 1,12, 0.00,60.00,Wednesday
8,130133378.86460243
2451,28701727.321958464
2,11, 1,11, 1,13, 0.00,60.00,Wednesday
8,398667830.84980905
2451,23134001.427262735
2,11, 1,11, 1,14, 0.00,60.00,Wednesday
8,400861695.93342566
2451,27747404.518270284
2,11, 1,11, 1,15, 0.00,60.00,Wednesday
8,398348568.33276105
2451,21651683.236637104
2,11, 1,11, 1,16, 0.00,60.00,Wednesday
8,394913228.4327244
2451,21040423.606665503
2,11, 1,11, 1,17, 0.00,60.00,Wednesday
8,116651437.86040398
2451,29403879.137374938
2,11, 1,11, 1,18, 0.00,60.00,Wednesday
8,105799319.00919369
2451,17649526.995772235
2,11, 1,11, 1,19, 0.00,60.00,Wednesday
8,104667531.77717957
2451,17115409.512733642
2,11, 1,11, 1,20, 0.00,60.00,Wednesday
8,105627934.26280518
2451,15868041.45673663
2,11, 1,11, 1,21, 0.00,60.00,Wednesday
8,104871359.99858144
2451,18464170.41740846
2,11, 1,11, 1,22, 0.00,60.00,Wednesday
8,104772180.3644914
2451,18098779.842469223
2,11, 1,11, 1,23, 0.00,60.00,Wednesday
8,106642111.55648625
2451,20407190.616487287
2,11, 1,11, 1,24, 0.00,60.00,Wednesday
8,104393245.91590098
2451,20959462.567581028
2,12, 1,12, 1, 1, 0.00,60.00,Thursday
8,105326526.96127287
2451,24142711.207020983
2,12, 1,12, 1, 2, 0.00,60.00,Thursday
8,107139382.04684992
2451,25838399.10190887
2,12, 1,12, 1, 3, 0.00,60.00,Thursday
8,105590449.95329413
2451,24888136.866631456
2,12, 1,12, 1, 4, 0.00,60.00,Thursday
8,105113747.43175912
2451,23861881.11188712
2,12, 1,12, 1, 5, 0.00,60.00,Thursday
8,108542587.42512411
2451,27954105.783498406
2,12, 1,12, 1, 6, 0.00,60.00,Thursday
8,113813270.84134676
2451,48007912.820425436
2,12, 1,12, 1, 7, 0.00,60.00,Thursday
8,123306572.22399805
2451,44217645.57770511
2,12, 1,12, 1, 8, 0.00,60.00,Thursday
8,401168626.24752563
2451,35106284.14776929
2,12, 1,12, 1, 9, 0.00,60.00,Thursday
8,404599956.48400366
2451,34369866.137737125
2,12, 1,12, 1,10, 0.00,60.00,Thursday
8,403087993.083064
2451,31381433.507992454
2,12, 1,12, 1,11, 0.00,60.00,Thursday
8,399439006.791562
2451,30323866.801107388
2,12, 1,12, 1,12, 0.00,60.00,Thursday
8,131760814.72607912
2451,32934391.2107708
2,12, 1,12, 1,13, 0.00,60.00,Thursday
8,399513163.7637231
2451,29969775.540524222
2,12, 1,12, 1,14, 0.00,60.00,Thursday
8,399475749.5318628
2451,30508318.739739336
2,12, 1,12, 1,15, 0.00,60.00,Thursday
8,400751789.195648
2451,32610317.28547781
2,12, 1,12, 1,16, 0.00,60.00,Thursday
8,396130241.54093015
2451,31770893.259471543
2,12, 1,12, 1,17, 0.00,60.00,Thursday
8,116369606.15087782
2451,36012766.58218369
2,12, 1,12, 1,18, 0.00,60.00,Thursday
8,107444264.06993157
2451,20583894.610180058
2,12, 1,12, 1,19, 0.00,60.00,Thursday
8,104609597.35375094
2451,17404069.022501454
2,12, 1,12, 1,20, 0.00,60.00,Thursday
8,105476554.72755328
2451,21623674.561072238
2,12, 1,12, 1,21, 0.00,60.00,Thursday
8,107432319.03178401
2451,24018895.26154899
2,12, 1,12, 1,22, 0.00,60.00,Thursday
8,108203693.27712344
2451,29732104.250922818
2,12, 1,12, 1,23, 0.00,60.00,Thursday
8,107118690.51989645
2451,26608951.9549982
2,12, 1,12, 1,24, 0.00,60.00,Thursday
8,108046517.88221575
2451,28473883.208785363
2,13, 1,13, 1, 1, 0.00,60.00,Friday
8,107329155.0769508
2451,29200786.697300214
2,13, 1,13, 1, 2, 0.00,60.00,Friday
8,105527425.90616442
2451,26033737.134096324
2,13, 1,13, 1, 3, 0.00,60.00,Friday
8,106730452.36309998
2451,26466084.371061247
2,13, 1,13, 1, 4, 0.00,60.00,Friday
8,105536261.63972947
2451,25623121.31947396
2,13, 1,13, 1, 5, 0.00,60.00,Friday
8,102637193.1984109
2451,15204462.864966495
2,13, 1,13, 1, 6, 0.00,60.00,Friday
8,109775386.50208208
2451,39618447.83853005
2,13, 1,13, 1, 7, 0.00,60.00,Friday
8,122792196.33646552
2451,37868318.60610821
2,13, 1,13, 1, 8, 0.00,60.00,Friday
8,399628091.55230546
2451,27486282.769527975
2,13, 1,13, 1, 9, 0.00,60.00,Friday
8,402654668.6099024
2451,29172752.284857694
2,13, 1,13, 1,10, 0.00,60.00,Friday
8,403230245.97077525
2451,24343130.942257088
2,13, 1,13, 1,11, 0.00,60.00,Friday
8,398368159.33872044
2451,17514189.349500045
2,13, 1,13, 1,12, 0.00,60.00,Friday
8,128172011.23232429
2451,21978319.79284089
2,13, 1,13, 1,13, 0.00,60.00,Friday
8,399765506.95135343
2451,17101923.160463654
2,13, 1,13, 1,14, 0.00,60.00,Friday
8,398606927.01578766
2451,16725626.220711771
2,13, 1,13, 1,15, 0.00,60.00,Friday
8,398167127.13676816
2451,9444012.666727219
2,13, 1,13, 1,16, 0.00,60.00,Friday
8,396012817.79393584
2451,10270540.746945469
2,13, 1,13, 1,17, 0.00,60.00,Friday
8,113792726.93022154
2451,26199760.5367651
2,13, 1,13, 1,18, 0.00,60.00,Friday
8,104274626.89075632
2451,16875318.58972581
2,13, 1,13, 1,19, 0.00,60.00,Friday
8,105377783.45501323
2451,17568190.88370569
2,13, 1,13, 1,20, 0.00,60.00,Friday
8,103660617.8533652
2451,14688713.324866835
2,13, 1,13, 1,21, 0.00,60.00,Friday
8,105949715.94365843
2451,22376333.1358582
2,13, 1,13, 1,22, 0.00,60.00,Friday
8,108474009.43854986
2451,25544538.60619517
2,13, 1,13, 1,23, 0.00,60.00,Friday
8,106415667.7192556
2451,23379324.084428802
2,13, 1,13, 1,24, 0.00,60.00,Friday
8,106941058.67917976
2451,26576000.421817966
2,14, 1,14, 1, 1, 0.00,60.00,Saturday
8,109276494.48258102
2451,30041975.334794015
2,14, 1,14, 1, 2, 0.00,60.00,Saturday
8,106793472.59283905
2451,24253815.490636256
2,14, 1,14, 1, 3, 0.00,60.00,Saturday
8,108133163.41340724
2451,28577709.768384445
2,14, 1,14, 1, 4, 0.00,60.00,Saturday
8,106147340.66512762
2451,25286377.133518253
2,14, 1,14, 1, 5, 0.00,60.00,Saturday
8,107150210.93275718
2451,24755775.145837326
2,14, 1,14, 1, 6, 0.00,60.00,Saturday
8,110055628.39606538
2451,40457820.519240715
2,14, 1,14, 1, 7, 0.00,60.00,Saturday
8,121037399.54926994
2451,38523101.24251946
2,14, 1,14, 1, 8, 0.00,60.00,Saturday
8,400640210.36683095
2451,22488893.006979838
2,14, 1,14, 1, 9, 0.00,60.00,Saturday
8,401941589.0288049
2451,26112407.698998332
2,14, 1,14, 1,10, 0.00,60.00,Saturday
8,401961434.65255183
2451,23681634.013205513
2,14, 1,14, 1,11, 0.00,60.00,Saturday
8,399567826.7896
2451,14154943.80294029
2,14, 1,14, 1,12, 0.00,60.00,Saturday
8,128247749.50150935
2451,23260122.074567366
2,14, 1,14, 1,13, 0.00,60.00,Saturday
8,399999373.9604666
2451,33403864.290127464
2,14, 1,14, 1,14, 0.00,60.00,Saturday
8,401687228.1178755
2451,35390003.31730333
2,14, 1,14, 1,15, 0.00,60.00,Saturday
8,400567988.3587009
2451,37864651.03737092
2,14, 1,14, 1,16, 0.00,60.00,Saturday
8,397249041.26250476
2451,26404387.995766398
2,14, 1,14, 1,17, 0.00,60.00,Saturday
8,119820704.70021904
2451,33293863.289570685
2,14, 1,14, 1,18, 0.00,60.00,Saturday
8,110081112.49291347
2451,37835635.66133353
2,14, 1,14, 1,19, 0.00,60.00,Saturday
8,112982686.95061587
2451,42582090.780444786
2,14, 1,14, 1,20, 0.00,60.00,Saturday
8,115500354.81024864
2451,44809934.0339579
2,14, 1,14, 1,21, 0.00,60.00,Saturday
8,119438309.04573023
2451,47879500.67144153
2,14, 1,14, 1,22, 0.00,60.00,Saturday
8,121916352.74667224
2451,51510082.94118205
2,14, 1,14, 1,23, 0.00,60.00,Saturday
8,119148232.80976744
2451,46660414.961159125
2,14, 1,14, 1,24, 0.00,60.00,Saturday
8,33726096.994456805
2451,50273309.95832475
2,15, 1,15, 1, 1, 0.00,60.00,Sunday
8,29535536.148485526
2451,46578095.90989787
2,15, 1,15, 1, 2, 0.00,60.00,Sunday
8,30743397.74385842
2451,48246808.665902615
2,15, 1,15, 1, 3, 0.00,60.00,Sunday
8,29937786.937901456
2451,44684787.212476626
2,15, 1,15, 1, 4, 0.00,60.00,Sunday
8,28197772.601388436
2451,42661063.188271664
2,15, 1,15, 1, 5, 0.00,60.00,Sunday
8,30312340.938146796
2451,44643635.67157
2,15, 1,15, 1, 6, 0.00,60.00,Sunday
8,31170789.153793782
2451,43320436.85774354
2,15, 1,15, 1, 7, 0.00,60.00,Sunday
8,30097158.777789515
2451,43499480.29163386
2,15, 1,15, 1, 8, 0.00,60.00,Sunday
8,32125851.068902534
2451,45388743.55799896
2,15, 1,15, 1, 9, 0.00,60.00,Sunday
8,36122114.17542684
2451,48470800.2003568
2,15, 1,15, 1,10, 0.00,60.00,Sunday
8,35308368.36597313
2451,49964205.46425965
2,15, 1,15, 1,11, 0.00,60.00,Sunday
8,36398649.84855981
2451,55341207.86098484
2,15, 1,15, 1,12, 0.00,60.00,Sunday
8,33429797.292829506
2451,49208410.76495318
2,15, 1,15, 1,13, 0.00,60.00,Sunday
8,33065204.9634716
2451,50547969.553235
2,15, 1,15, 1,14, 0.00,60.00,Sunday
8,31246062.488817763
2451,47865291.37607049
2,15, 1,15, 1,15, 0.00,60.00,Sunday
8,30607934.44189264
2451,46843362.38372234
2,15, 1,15, 1,16, 0.00,60.00,Sunday
8,33278929.265377574
2451,48753945.060847186
2,15, 1,15, 1,17, 0.00,60.00,Sunday
8,31501082.69017629
2451,47841981.57047412
2,15, 1,15, 1,18, 0.00,60.00,Sunday
8,35354404.654107004
2451,49453187.66020262
2,15, 1,15, 1,19, 0.00,60.00,Sunday
8,34958277.66006023
2451,46877350.73256707
2,15, 1,15, 1,20, 0.00,60.00,Sunday
8,35658655.61599655
2451,49732998.3783411
2,15, 1,15, 1,21, 0.00,60.00,Sunday
8,32179974.888063483
2451,45506076.18382142
2,15, 1,15, 1,22, 0.00,60.00,Sunday
8,35163458.91025019
2451,48133099.10837929
2,15, 1,15, 1,23, 0.00,60.00,Sunday
8,28926866.38748083
2451,40272382.95860819
2,15, 1,15, 1,24, 0.00,60.00,Sunday
8,116249568.4782162
2451,40082161.73567149
2,16, 1,16, 1, 1, 0.00,60.00,Monday
8,112804464.67453617
2451,32803187.811093807
2,16, 1,16, 1, 2, 0.00,60.00,Monday
8,111527002.92721844
2451,32890086.700780377
2,16, 1,16, 1, 3, 0.00,60.00,Monday
8,117381636.1130409
2451,41493753.49892307
2,16, 1,16, 1, 4, 0.00,60.00,Monday