Program Version,EnergyPlus, Version 22.2.0-aa78da9668, YMD=2023.06.21 17:09
1,5,Environment Title[],Latitude[deg],Longitude[deg],Time Zone[],Elevation[m]
2,8,Day of Simulation[],Month[],Day of Month[],DST Indicator[1=yes 0=no],Hour[],StartMinute[],EndMinute[],DayType
3,5,Cumulative Day of Simulation[],Month[],Day of Month[],DST Indicator[1=yes 0=no],DayType  ! When Daily Meters Requested
4,2,Cumulative Days of Simulation[],Month[]  ! When Monthly Meters Requested
5,1,Cumulative Days of Simulation[] ! When Run Period Meters Requested
6,1,Calendar Year of Simulation[] ! When Annual Meters Requested
8,1,Electricity:Facility [J] !TimeStep
2096,1,DistrictHeating:Facility [J] !TimeStep
9,1,Electricity:Facility [J] !Hourly
2244,1,ElectricityNet:Facility [J] !Hourly
10,7,Electricity:Facility [J] !Daily [Value,Min,Hour,Minute,Max,Hour,Minute]
End of Data Dictionary
1,RUN PERIOD 1,  57.75,-152.50,  -9.00,   5.00
2,1, 1, 1, 0, 1, 0.00,60.00,Sunday
8,33740046.86846167
2096,313270258.0537706
2,1, 1, 1, 0, 1, 0.00,60.00,Sunday
9,33740046.86846167
2244,33740046.86846167
2,1, 1, 1, 0, 2, 0.00,60.00,Sunday
8,33778135.46297658
2096,319681920.6303183
2,1, 1, 1, 0, 2, 0.00,60.00,Sunday
9,33778135.46297658
2244,33778135.46297659
2,1, 1, 1, 0, 3, 0.00,60.00,Sunday
8,33530158.370373182
2096,311264656.3550524
2,1, 1, 1, 0, 3, 0.00,60.00,Sunday
9,33530158.370373182
2244,33530158.370373175
2,1, 1, 1, 0, 4, 0.00,60.00,Sunday
8,32988613.440767445
2096,262988594.89600667
2,1, 1, 1, 0, 4, 0.00,60.00,Sunday
9,32988613.440767445
2244,32988613.440767452
2,1, 1, 1, 0, 5, 0.00,60.00,Sunday
8,32949255.388930514
2096,256305922.7197393
2,1, 1, 1, 0, 5, 0.00,60.00,Sunday
9,32949255.388930514
2244,32949255.388930514
2,1, 1, 1, 0, 6, 0.00,60.00,Sunday
8,32184438.56020052
2096,211855775.04315633
2,1, 1, 1, 0, 6, 0.00,60.00,Sunday
9,32184438.56020052
2244,32184438.56020052
2,1, 1, 1, 0, 7, 0.00,60.00,Sunday
8,33911883.680736184
2096,243450641.58688074
2,1, 1, 1, 0, 7, 0.00,60.00,Sunday
9,33911883.680736184
2244,33911883.680736184
2,1, 1, 1, 0, 8, 0.00,60.00,Sunday
8,34271514.36738672
2096,257122973.0561258
2,1, 1, 1, 0, 8, 0.00,60.00,Sunday
9,34271514.36738672
2244,34271514.36738673
2,1, 1, 1, 0, 9, 0.00,60.00,Sunday
8,34118382.76931639
2096,195675590.56136766
2,1, 1, 1, 0, 9, 0.00,60.00,Sunday
9,34118382.76931639
2244,34118382.7693164
2,1, 1, 1, 0,10, 0.00,60.00,Sunday
8,33931516.61444855
2096,241445864.87010294
2,1, 1, 1, 0,10, 0.00,60.00,Sunday
9,33931516.61444855
2244,33931516.614448555
2,1, 1, 1, 0,11, 0.00,60.00,Sunday
8,28393007.968890637
2096,220665509.27615336
2,1, 1, 1, 0,11, 0.00,60.00,Sunday
9,28393007.968890637
2244,28393007.968890633
2,1, 1, 1, 0,12, 0.00,60.00,Sunday
8,27423356.57966087
2096,195259749.46514958
2,1, 1, 1, 0,12, 0.00,60.00,Sunday
9,27423356.57966087
2244,27423356.57966087
2,1, 1, 1, 0,13, 0.00,60.00,Sunday
8,27371317.962713793
2096,199076390.460064
2,1, 1, 1, 0,13, 0.00,60.00,Sunday
9,27371317.962713793
2244,27371317.962713785
2,1, 1, 1, 0,14, 0.00,60.00,Sunday
8,27386484.29550703
2096,194353967.98633826
2,1, 1, 1, 0,14, 0.00,60.00,Sunday
9,27386484.29550703
2244,27386484.295507025
2,1, 1, 1, 0,15, 0.00,60.00,Sunday
8,27683230.73555352
2096,185997824.3398952
2,1, 1, 1, 0,15, 0.00,60.00,Sunday
9,27683230.73555352
2244,27683230.735553533
2,1, 1, 1, 0,16, 0.00,60.00,Sunday
8,28830105.21383915
2096,191858233.0921566
2,1, 1, 1, 0,16, 0.00,60.00,Sunday
9,28830105.21383915
2244,28830105.21383915
2,1, 1, 1, 0,17, 0.00,60.00,Sunday
8,34885603.4160234
2096,223144753.54630974
2,1, 1, 1, 0,17, 0.00,60.00,Sunday
9,34885603.4160234
2244,34885603.4160234
2,1, 1, 1, 0,18, 0.00,60.00,Sunday
8,34238540.7948274
2096,271050481.8306678
2,1, 1, 1, 0,18, 0.00,60.00,Sunday
9,34238540.7948274
2244,34238540.794827394
2,1, 1, 1, 0,19, 0.00,60.00,Sunday
8,35148350.64823577
2096,330584207.55749846
2,1, 1, 1, 0,19, 0.00,60.00,Sunday
9,35148350.64823577
2244,35148350.648235776
2,1, 1, 1, 0,20, 0.00,60.00,Sunday
8,35786367.7497694
2096,374795816.217211
2,1, 1, 1, 0,20, 0.00,60.00,Sunday
9,35786367.7497694
2244,35786367.7497694
2,1, 1, 1, 0,21, 0.00,60.00,Sunday
8,34667057.58385656
2096,302964770.43805754
2,1, 1, 1, 0,21, 0.00,60.00,Sunday
9,34667057.58385656
2244,34667057.58385656
2,1, 1, 1, 0,22, 0.00,60.00,Sunday
8,34331773.54765773
2096,277280126.25500035
2,1, 1, 1, 0,22, 0.00,60.00,Sunday
9,34331773.54765773
2244,34331773.54765773
2,1, 1, 1, 0,23, 0.00,60.00,Sunday
8,33429706.22321859
2096,222297262.83291122
2,1, 1, 1, 0,23, 0.00,60.00,Sunday
9,33429706.22321859
2244,33429706.223218583
2,1, 1, 1, 0,24, 0.00,60.00,Sunday
8,33576410.45812836
2096,228946129.13384023
2,1, 1, 1, 0,24, 0.00,60.00,Sunday
9,33576410.45812836
2244,33576410.458128355
3,1, 1, 1, 0,Sunday
10,778555258.7014799,27371317.962713793,13,60,35786367.7497694,20,60
2,2, 1, 2, 0, 1, 0.00,60.00,Monday
8,114411017.01634787
2096,302037894.6830312
2,2, 1, 2, 0, 1, 0.00,60.00,Monday
9,114411017.01634787
2244,114411017.01634789
2,2, 1, 2, 0, 2, 0.00,60.00,Monday
8,112550900.76472874
2096,264747736.43383715
2,2, 1, 2, 0, 2, 0.00,60.00,Monday
9,112550900.76472874
2244,112550900.76472875
2,2, 1, 2, 0, 3, 0.00,60.00,Monday
8,112927179.9784813
2096,287199500.85478616
2,2, 1, 2, 0, 3, 0.00,60.00,Monday
9,112927179.9784813
2244,112927179.97848132
2,2, 1, 2, 0, 4, 0.00,60.00,Monday
8,114150924.56283262
2096,367855776.1506851
2,2, 1, 2, 0, 4, 0.00,60.00,Monday
9,114150924.56283262
2244,114150924.56283261
2,2, 1, 2, 0, 5, 0.00,60.00,Monday
8,114370490.22723858
2096,385960676.3194985
2,2, 1, 2, 0, 5, 0.00,60.00,Monday
9,114370490.22723858
2244,114370490.22723858
2,2, 1, 2, 0, 6, 0.00,60.00,Monday
8,113532844.009379
2096,318289974.0099028
2,2, 1, 2, 0, 6, 0.00,60.00,Monday
9,113532844.009379
2244,113532844.009379
2,2, 1, 2, 0, 7, 0.00,60.00,Monday
8,174236605.8991696
2096,514407666.30218375
2,2, 1, 2, 0, 7, 0.00,60.00,Monday
9,174236605.8991696
2244,174236605.89916956
2,2, 1, 2, 0, 8, 0.00,60.00,Monday
8,189177818.54728013
2096,470777401.02475893
2,2, 1, 2, 0, 8, 0.00,60.00,Monday
9,189177818.54728013
2244,189177818.54728016
2,2, 1, 2, 0, 9, 0.00,60.00,Monday
8,458914780.3312589
2096,363667042.57426536
2,2, 1, 2, 0, 9, 0.00,60.00,Monday
9,458914780.3312589
2244,458914780.3312589
2,2, 1, 2, 0,10, 0.00,60.00,Monday
8,467730432.23129094
2096,313384633.77723765
2,2, 1, 2, 0,10, 0.00,60.00,Monday
9,467730432.23129094
2244,467730432.231291
2,2, 1, 2, 0,11, 0.00,60.00,Monday
8,449727259.8281403
2096,258087009.41749808
2,2, 1, 2, 0,11, 0.00,60.00,Monday
9,449727259.8281403
2244,449727259.8281403
2,2, 1, 2, 0,12, 0.00,60.00,Monday
8,449062308.2644906
2096,255359545.63537815
2,2, 1, 2, 0,12, 0.00,60.00,Monday
9,449062308.2644906
2244,449062308.2644906
2,2, 1, 2, 0,13, 0.00,60.00,Monday
8,207062596.46821368
2096,238007773.32232368
2,2, 1, 2, 0,13, 0.00,60.00,Monday
9,207062596.46821368
2244,207062596.46821365
2,2, 1, 2, 0,14, 0.00,60.00,Monday
8,449662548.0573642
2096,195862675.70986074
2,2, 1, 2, 0,14, 0.00,60.00,Monday
9,449662548.0573642
2244,449662548.0573643
2,2, 1, 2, 0,15, 0.00,60.00,Monday
8,451644053.4245499
2096,202990293.65679747
2,2, 1, 2, 0,15, 0.00,60.00,Monday
9,451644053.4245499
2244,451644053.4245499
2,2, 1, 2, 0,16, 0.00,60.00,Monday
8,455071717.2487963
2096,217952555.53792924
2,2, 1, 2, 0,16, 0.00,60.00,Monday
9,455071717.2487963
2244,455071717.2487962
2,2, 1, 2, 0,17, 0.00,60.00,Monday
8,454409678.0185289
2096,273287208.5494172
2,2, 1, 2, 0,17, 0.00,60.00,Monday
9,454409678.0185289
2244,454409678.018529
2,2, 1, 2, 0,18, 0.00,60.00,Monday
8,178323205.81531212
2096,196503655.59145045
2,2, 1, 2, 0,18, 0.00,60.00,Monday
9,178323205.81531212
2244,178323205.81531212
2,2, 1, 2, 0,19, 0.00,60.00,Monday
8,113556702.55428845
2096,150467854.1382038
2,2, 1, 2, 0,19, 0.00,60.00,Monday
9,113556702.55428845
2244,113556702.55428846
2,2, 1, 2, 0,20, 0.00,60.00,Monday
8,109295091.9575646
2096,183824757.5451416
2,2, 1, 2, 0,20, 0.00,60.00,Monday
9,109295091.9575646
2244,109295091.9575646
2,2, 1, 2, 0,21, 0.00,60.00,Monday
8,110826833.15148695
2096,238224783.7245497
2,2, 1, 2, 0,21, 0.00,60.00,Monday
9,110826833.15148695
2244,110826833.15148695
2,2, 1, 2, 0,22, 0.00,60.00,Monday
8,111355235.79742359
2096,225289598.57335716
2,2, 1, 2, 0,22, 0.00,60.00,Monday
9,111355235.79742359
2244,111355235.7974236
2,2, 1, 2, 0,23, 0.00,60.00,Monday
8,112765974.54056159
2096,267228292.0910747
2,2, 1, 2, 0,23, 0.00,60.00,Monday
9,112765974.54056159
2244,112765974.54056159
2,2, 1, 2, 0,24, 0.00,60.00,Monday
8,112770077.06198232
2096,252690735.35497773
2,2, 1, 2, 0,24, 0.00,60.00,Monday
9,112770077.06198232
2244,112770077.06198232
3,2, 1, 2, 0,Monday
10,5737536275.756712,109295091.9575646,20,60,467730432.23129094,10,60
2,3, 1, 3, 0, 1, 0.00,60.00,Tuesday
8,113564857.22866935
2096,292427655.2672925
2,3, 1, 3, 0, 1, 0.00,60.00,Tuesday
9,113564857.22866935
2244,113564857.22866936
2,3, 1, 3, 0, 2, 0.00,60.00,Tuesday
8,112293097.25836341
2096,285346794.07917523
2,3, 1, 3, 0, 2, 0.00,60.00,Tuesday
9,112293097.25836341
2244,112293097.25836343
2,3, 1, 3, 0, 3, 0.00,60.00,Tuesday
8,112544372.72884637
2096,297732748.6032425
2,3, 1, 3, 0, 3, 0.00,60.00,Tuesday
9,112544372.72884637
2244,112544372.72884642
2,3, 1, 3, 0, 4, 0.00,60.00,Tuesday
8,112229089.87772457
2096,271432000.6251098
2,3, 1, 3, 0, 4, 0.00,60.00,Tuesday
9,112229089.87772457
2244,112229089.87772459
2,3, 1, 3, 0, 5, 0.00,60.00,Tuesday
8,112277468.7327675
2096,271408083.5469265
2,3, 1, 3, 0, 5, 0.00,60.00,Tuesday
9,112277468.7327675
2244,112277468.73276749
2,3, 1, 3, 0, 6, 0.00,60.00,Tuesday
8,112931496.43937922
2096,301591630.37546426
2,3, 1, 3, 0, 6, 0.00,60.00,Tuesday
9,112931496.43937922
2244,112931496.43937926
2,3, 1, 3, 0, 7, 0.00,60.00,Tuesday
8,172889562.0212173
2096,432559784.2129336
2,3, 1, 3, 0, 7, 0.00,60.00,Tuesday
9,172889562.0212173
2244,172889562.0212173
2,3, 1, 3, 0, 8, 0.00,60.00,Tuesday
8,188391808.9011676
2096,417003321.7163978
2,3, 1, 3, 0, 8, 0.00,60.00,Tuesday
9,188391808.9011676
2244,188391808.90116763
2,3, 1, 3, 0, 9, 0.00,60.00,Tuesday
8,459576091.05871755
2096,424103555.1196931
2,3, 1, 3, 0, 9, 0.00,60.00,Tuesday
9,459576091.05871755
2244,459576091.05871755
2,3, 1, 3, 0,10, 0.00,60.00,Tuesday
8,468092320.24018204
2096,348704629.534076
2,3, 1, 3, 0,10, 0.00,60.00,Tuesday
9,468092320.24018204
2244,468092320.24018204
2,3, 1, 3, 0,11, 0.00,60.00,Tuesday
8,449799310.8629526
2096,282869972.49777627
2,3, 1, 3, 0,11, 0.00,60.00,Tuesday
9,449799310.8629526
2244,449799310.8629527
2,3, 1, 3, 0,12, 0.00,60.00,Tuesday
8,445946170.2163361
2096,219726307.38817203
2,3, 1, 3, 0,12, 0.00,60.00,Tuesday
9,445946170.2163361
2244,445946170.216336
2,3, 1, 3, 0,13, 0.00,60.00,Tuesday
8,205955059.89925316
2096,192051228.1177236
2,3, 1, 3, 0,13, 0.00,60.00,Tuesday
9,205955059.89925316
2244,205955059.89925316
2,3, 1, 3, 0,14, 0.00,60.00,Tuesday
8,446748696.33323044
2096,190804210.68194854
2,3, 1, 3, 0,14, 0.00,60.00,Tuesday
9,446748696.33323044
2244,446748696.3332305
2,3, 1, 3, 0,15, 0.00,60.00,Tuesday
8,450465059.3740509
2096,192658399.5665812
2,3, 1, 3, 0,15, 0.00,60.00,Tuesday
9,450465059.3740509
2244,450465059.374051
2,3, 1, 3, 0,16, 0.00,60.00,Tuesday
8,460548949.57820207
2096,140034987.04150966
2,3, 1, 3, 0,16, 0.00,60.00,Tuesday
9,460548949.57820207
2244,460548949.5782021
2,3, 1, 3, 0,17, 0.00,60.00,Tuesday
8,453457838.3884817
2096,213737394.68715715
2,3, 1, 3, 0,17, 0.00,60.00,Tuesday
9,453457838.3884817
2244,453457838.3884816
2,3, 1, 3, 0,18, 0.00,60.00,Tuesday
8,178641254.94245288
2096,208658379.89775252
2,3, 1, 3, 0,18, 0.00,60.00,Tuesday
9,178641254.94245288
2244,178641254.94245288
2,3, 1, 3, 0,19, 0.00,60.00,Tuesday
8,113062451.54931483
2096,121455211.48092784
2,3, 1, 3, 0,19, 0.00,60.00,Tuesday
9,113062451.54931483
2244,113062451.5493148
2,3, 1, 3, 0,20, 0.00,60.00,Tuesday
8,108319423.96394205
2096,123098891.31955577
2,3, 1, 3, 0,20, 0.00,60.00,Tuesday
9,108319423.96394205
2244,108319423.96394207
2,3, 1, 3, 0,21, 0.00,60.00,Tuesday
8,108248110.7391282
2096,93302548.16884288
2,3, 1, 3, 0,21, 0.00,60.00,Tuesday
9,108248110.7391282
2244,108248110.73912825
2,3, 1, 3, 0,22, 0.00,60.00,Tuesday
8,109249048.96179268
2096,106206240.6404239
2,3, 1, 3, 0,22, 0.00,60.00,Tuesday
9,109249048.96179268
2244,109249048.96179268
2,3, 1, 3, 0,23, 0.00,60.00,Tuesday
8,111628357.75913441
2096,195322283.67242974
2,3, 1, 3, 0,23, 0.00,60.00,Tuesday
9,111628357.75913441
2244,111628357.75913438
2,3, 1, 3, 0,24, 0.00,60.00,Tuesday
8,111872117.07985847
2096,199022423.67938122
2,3, 1, 3, 0,24, 0.00,60.00,Tuesday
9,111872117.07985847
2244,111872117.07985848
3,3, 1, 3, 0,Tuesday
10,5718732014.135165,108248110.7391282,21,60,468092320.24018204,10,60
2,4, 1, 4, 0, 1, 0.00,60.00,Wednesday
8,112684724.5790422
2096,234843130.41839388
2,4, 1, 4, 0, 1, 0.00,60.00,Wednesday
9,112684724.5790422
2244,112684724.57904223
2,4, 1, 4, 0, 2, 0.00,60.00,Wednesday
8,112138539.75607847
2096,276817490.4747232
2,4, 1, 4, 0, 2, 0.00,60.00,Wednesday
9,112138539.75607847
2244,112138539.75607853
2,4, 1, 4, 0, 3, 0.00,60.00,Wednesday
8,112887682.12644136
2096,329582588.99203837
2,4, 1, 4, 0, 3, 0.00,60.00,Wednesday
9,112887682.12644136
2244,112887682.12644134
2,4, 1, 4, 0, 4, 0.00,60.00,Wednesday
8,112763310.487863
2096,315941656.58485955
2,4, 1, 4, 0, 4, 0.00,60.00,Wednesday
9,112763310.487863
2244,112763310.487863
2,4, 1, 4, 0, 5, 0.00,60.00,Wednesday
8,112356925.9105663
2096,281461445.2246044
2,4, 1, 4, 0, 5, 0.00,60.00,Wednesday
9,112356925.9105663
2244,112356925.91056634
2,4, 1, 4, 0, 6, 0.00,60.00,Wednesday
8,112605634.86081597
2096,280897441.6072936
2,4, 1, 4, 0, 6, 0.00,60.00,Wednesday
9,112605634.86081597
2244,112605634.86081602
2,4, 1, 4, 0, 7, 0.00,60.00,Wednesday
8,172775751.14174235
2096,413401981.6498973
2,4, 1, 4, 0, 7, 0.00,60.00,Wednesday
9,172775751.14174235
2244,172775751.14174235
2,4, 1, 4, 0, 8, 0.00,60.00,Wednesday
8,188078914.463643
2096,384320490.46237445
2,4, 1, 4, 0, 8, 0.00,60.00,Wednesday
9,188078914.463643
2244,188078914.463643
2,4, 1, 4, 0, 9, 0.00,60.00,Wednesday
8,458793484.45970577
2096,354928068.0017113
2,4, 1, 4, 0, 9, 0.00,60.00,Wednesday
9,458793484.45970577
2244,458793484.459706
2,4, 1, 4, 0,10, 0.00,60.00,Wednesday
8,467760754.6055761
2096,324482871.1338168
2,4, 1, 4, 0,10, 0.00,60.00,Wednesday
9,467760754.6055761
2244,467760754.60557616
2,4, 1, 4, 0,11, 0.00,60.00,Wednesday
8,448583216.84961957
2096,225359338.61311653
2,4, 1, 4, 0,11, 0.00,60.00,Wednesday
9,448583216.84961957
2244,448583216.8496196
2,4, 1, 4, 0,12, 0.00,60.00,Wednesday
8,446671957.72095484
2096,178564196.76518744
2,4, 1, 4, 0,12, 0.00,60.00,Wednesday
9,446671957.72095484
2244,446671957.7209549
2,4, 1, 4, 0,13, 0.00,60.00,Wednesday
8,206148042.7160375
2096,172196291.63745442
2,4, 1, 4, 0,13, 0.00,60.00,Wednesday
9,206148042.7160375
2244,206148042.71603757
2,4, 1, 4, 0,14, 0.00,60.00,Wednesday
8,447086166.05863893
2096,133959236.3145147
2,4, 1, 4, 0,14, 0.00,60.00,Wednesday
9,447086166.05863893
2244,447086166.05863893
2,4, 1, 4, 0,15, 0.00,60.00,Wednesday
8,454896856.1435413
2096,205583335.70985925
2,4, 1, 4, 0,15, 0.00,60.00,Wednesday
9,454896856.1435413
2244,454896856.14354146
2,4, 1, 4, 0,16, 0.00,60.00,Wednesday
8,462267213.0053175
2096,223967616.65460512
2,4, 1, 4, 0,16, 0.00,60.00,Wednesday
9,462267213.0053175
2244,462267213.00531745
2,4, 1, 4, 0,17, 0.00,60.00,Wednesday
8,453492637.8966796
2096,216873058.40926433
2,4, 1, 4, 0,17, 0.00,60.00,Wednesday
9,453492637.8966796
2244,453492637.89667946
2,4, 1, 4, 0,18, 0.00,60.00,Wednesday
8,179246366.3630601
2096,249077034.98705482
2,4, 1, 4, 0,18, 0.00,60.00,Wednesday
9,179246366.3630601
2244,179246366.3630601
2,4, 1, 4, 0,19, 0.00,60.00,Wednesday
8,113098223.26229088
2096,126095668.33374605
2,4, 1, 4, 0,19, 0.00,60.00,Wednesday
9,113098223.26229088
2244,113098223.2622909
2,4, 1, 4, 0,20, 0.00,60.00,Wednesday
8,108078879.93545564
2096,110782163.19276801
2,4, 1, 4, 0,20, 0.00,60.00,Wednesday
9,108078879.93545564
2244,108078879.93545564
2,4, 1, 4, 0,21, 0.00,60.00,Wednesday
8,110882834.94843014
2096,243760135.44853806
2,4, 1, 4, 0,21, 0.00,60.00,Wednesday
9,110882834.94843014
2244,110882834.94843015
2,4, 1, 4, 0,22, 0.00,60.00,Wednesday
8,112313628.99958393
2096,305378740.45704067
2,4, 1, 4, 0,22, 0.00,60.00,Wednesday
9,112313628.99958393
2244,112313628.99958393
2,4, 1, 4, 0,23, 0.00,60.00,Wednesday
8,112371470.4107646
2096,259164463.24764696
2,4, 1, 4, 0,23, 0.00,60.00,Wednesday
9,112371470.4107646
2244,112371470.4107646
2,4, 1, 4, 0,24, 0.00,60.00,Wednesday
8,114147364.82014386
2096,363100029.20704025
2,4, 1, 4, 0,24, 0.00,60.00,Wednesday
9,114147364.82014386
2244,114147364.82014388
3,4, 1, 4, 0,Wednesday
10,5732130581.521993,108078879.93545564,20,60,467760754.6055761,10,60
2,5, 1, 5, 0, 1, 0.00,60.00,Thursday
8,114643147.88455586
2096,387901335.56458575
2,5, 1, 5, 0, 1, 0.00,60.00,Thursday
9,114643147.88455586
2244,114643147.88455588
2,5, 1, 5, 0, 2, 0.00,60.00,Thursday
8,112940804.29288368
2096,342191253.7097998
2,5, 1, 5, 0, 2, 0.00,60.00,Thursday
9,112940804.29288368
2244,112940804.29288368
2,5, 1, 5, 0, 3, 0.00,60.00,Thursday
8,113544579.15474042
2096,383661543.2638831
2,5, 1, 5, 0, 3, 0.00,60.00,Thursday
9,113544579.15474042
2244,113544579.15474042
2,5, 1, 5, 0, 4, 0.00,60.00,Thursday
8,114262855.52607326
2096,439065737.1144685
2,5, 1, 5, 0, 4, 0.00,60.00,Thursday
9,114262855.52607326
2244,114262855.52607326
2,5, 1, 5, 0, 5, 0.00,60.00,Thursday
8,111453210.07989424
2096,232588763.4853006
2,5, 1, 5, 0, 5, 0.00,60.00,Thursday
9,111453210.07989424
2244,111453210.07989427
2,5, 1, 5, 0, 6, 0.00,60.00,Thursday
8,114366253.39185908
2096,415644609.52979434
2,5, 1, 5, 0, 6, 0.00,60.00,Thursday
9,114366253.39185908
2244,114366253.39185911
2,5, 1, 5, 0, 7, 0.00,60.00,Thursday
8,174178375.16824988
2096,521828899.6081991
2,5, 1, 5, 0, 7, 0.00,60.00,Thursday
9,174178375.16824988
2244,174178375.16824996
2,5, 1, 5, 0, 8, 0.00,60.00,Thursday
8,190211399.29469687
2096,581877007.8086282
2,5, 1, 5, 0, 8, 0.00,60.00,Thursday
9,190211399.29469687
2244,190211399.29469684
2,5, 1, 5, 0, 9, 0.00,60.00,Thursday
8,463433631.7915831
2096,790214019.3124813
2,5, 1, 5, 0, 9, 0.00,60.00,Thursday
9,463433631.7915831
2244,463433631.7915832
2,5, 1, 5, 0,10, 0.00,60.00,Thursday
8,471801604.7210988
2096,692820952.8605839
2,5, 1, 5, 0,10, 0.00,60.00,Thursday
9,471801604.7210988
2244,471801604.7210988
2,5, 1, 5, 0,11, 0.00,60.00,Thursday
8,453880246.130952
2096,651193139.6968453
2,5, 1, 5, 0,11, 0.00,60.00,Thursday
9,453880246.130952
2244,453880246.13095194
2,5, 1, 5, 0,12, 0.00,60.00,Thursday
8,450122799.37889534
2096,520026387.5748017
2,5, 1, 5, 0,12, 0.00,60.00,Thursday
9,450122799.37889534
2244,450122799.37889546
2,5, 1, 5, 0,13, 0.00,60.00,Thursday
8,210348339.0013699
2096,521375484.5558763
2,5, 1, 5, 0,13, 0.00,60.00,Thursday
9,210348339.0013699
2244,210348339.00136995
2,5, 1, 5, 0,14, 0.00,60.00,Thursday
8,452848082.0308345
2096,677878937.0863237
2,5, 1, 5, 0,14, 0.00,60.00,Thursday
9,452848082.0308345
2244,452848082.0308347
2,5, 1, 5, 0,15, 0.00,60.00,Thursday
8,457508645.38541394
2096,702032758.316023
2,5, 1, 5, 0,15, 0.00,60.00,Thursday
9,457508645.38541394
2244,457508645.3854139
2,5, 1, 5, 0,16, 0.00,60.00,Thursday
8,460629427.8580682
2096,694597867.2018762
2,5, 1, 5, 0,16, 0.00,60.00,Thursday
9,460629427.8580682
2244,460629427.8580683
2,5, 1, 5, 0,17, 0.00,60.00,Thursday
8,464115502.912049
2096,881073859.7600048
2,5, 1, 5, 0,17, 0.00,60.00,Thursday
9,464115502.912049
2244,464115502.91204906
2,5, 1, 5, 0,18, 0.00,60.00,Thursday
8,183943100.70004368
2096,699151414.640804
2,5, 1, 5, 0,18, 0.00,60.00,Thursday
9,183943100.70004368
2244,183943100.70004368
2,5, 1, 5, 0,19, 0.00,60.00,Thursday
8,119888728.85254441
2096,666973008.8080399
2,5, 1, 5, 0,19, 0.00,60.00,Thursday
9,119888728.85254441
2244,119888728.85254443
2,5, 1, 5, 0,20, 0.00,60.00,Thursday
8,113882385.45064327
2096,518444903.7938074
2,5, 1, 5, 0,20, 0.00,60.00,Thursday
9,113882385.45064327
2244,113882385.4506433
2,5, 1, 5, 0,21, 0.00,60.00,Thursday
8,113425167.1240768
2096,441023087.74200225
2,5, 1, 5, 0,21, 0.00,60.00,Thursday
9,113425167.1240768
2244,113425167.12407677
2,5, 1, 5, 0,22, 0.00,60.00,Thursday
8,114099125.51755661
2096,446318697.45700395
2,5, 1, 5, 0,22, 0.00,60.00,Thursday
9,114099125.51755661
2244,114099125.51755661
2,5, 1, 5, 0,23, 0.00,60.00,Thursday
8,115085425.87535892
2096,461520136.3660438
2,5, 1, 5, 0,23, 0.00,60.00,Thursday
9,115085425.87535892
2244,115085425.87535894
2,5, 1, 5, 0,24, 0.00,60.00,Thursday
8,116201594.28136171
2096,526318265.3402458
2,5, 1, 5, 0,24, 0.00,60.00,Thursday
9,116201594.28136171
2244,116201594.28136173
3,5, 1, 5, 0,Thursday
10,5806814431.804804,111453210.07989424, 5,60,471801604.7210988,10,60
2,6, 1, 6, 0, 1, 0.00,60.00,Friday
8,117390951.9614984
2096,615404089.0244408
2,6, 1, 6, 0, 1, 0.00,60.00,Friday
9,117390951.9614984
2244,117390951.9614984
2,6, 1, 6, 0, 2, 0.00,60.00,Friday
8,115879449.41194142
2096,581264130.078523
2,6, 1, 6, 0, 2, 0.00,60.00,Friday
9,115879449.41194142
2244,115879449.41194141
2,6, 1, 6, 0, 3, 0.00,60.00,Friday
8,115661156.86333889
2096,549051057.7923578
2,6, 1, 6, 0, 3, 0.00,60.00,Friday
9,115661156.86333889
2244,115661156.86333889
2,6, 1, 6, 0, 4, 0.00,60.00,Friday
8,114428992.72982286
2096,449577092.9420054
2,6, 1, 6, 0, 4, 0.00,60.00,Friday
9,114428992.72982286
2244,114428992.72982289
2,6, 1, 6, 0, 5, 0.00,60.00,Friday
8,113510980.61570743
2096,369272094.1756481
2,6, 1, 6, 0, 5, 0.00,60.00,Friday
9,113510980.61570743
2244,113510980.61570743
2,6, 1, 6, 0, 6, 0.00,60.00,Friday
8,114208946.73392779
2096,397716782.9382641
2,6, 1, 6, 0, 6, 0.00,60.00,Friday
9,114208946.73392779
2244,114208946.73392776
2,6, 1, 6, 0, 7, 0.00,60.00,Friday
8,176458677.87778896
2096,713407465.1711596
2,6, 1, 6, 0, 7, 0.00,60.00,Friday
9,176458677.87778896
2244,176458677.87778896
2,6, 1, 6, 0, 8, 0.00,60.00,Friday
8,190258003.46779177
2096,591540719.6462743
2,6, 1, 6, 0, 8, 0.00,60.00,Friday
9,190258003.46779177
2244,190258003.4677918
2,6, 1, 6, 0, 9, 0.00,60.00,Friday
8,461366071.4852536
2096,587726886.5364547
2,6, 1, 6, 0, 9, 0.00,60.00,Friday
9,461366071.4852536
2244,461366071.4852535
2,6, 1, 6, 0,10, 0.00,60.00,Friday
8,469532505.35583055
2096,467837130.2086962
2,6, 1, 6, 0,10, 0.00,60.00,Friday
9,469532505.35583055
2244,469532505.35583055
2,6, 1, 6, 0,11, 0.00,60.00,Friday
8,452168191.56761783
2096,624669289.2164679
2,6, 1, 6, 0,11, 0.00,60.00,Friday
9,452168191.56761783
2244,452168191.5676179
2,6, 1, 6, 0,12, 0.00,60.00,Friday
8,450195321.58134776
2096,539976977.9606919
2,6, 1, 6, 0,12, 0.00,60.00,Friday
9,450195321.58134776
2244,450195321.58134776
2,6, 1, 6, 0,13, 0.00,60.00,Friday
8,210494668.30808988
2096,553779753.1580025
2,6, 1, 6, 0,13, 0.00,60.00,Friday
9,210494668.30808988
2244,210494668.30808994
2,6, 1, 6, 0,14, 0.00,60.00,Friday
8,451200695.71190226
2096,528505487.9256073
2,6, 1, 6, 0,14, 0.00,60.00,Friday
9,451200695.71190226
2244,451200695.71190226
2,6, 1, 6, 0,15, 0.00,60.00,Friday
8,458236407.90639883
2096,582825391.478798
2,6, 1, 6, 0,15, 0.00,60.00,Friday
9,458236407.90639883
2244,458236407.90639883
2,6, 1, 6, 0,16, 0.00,60.00,Friday
8,464866338.5939461
2096,770906946.6172472
2,6, 1, 6, 0,16, 0.00,60.00,Friday
9,464866338.5939461
2244,464866338.59394604
2,6, 1, 6, 0,17, 0.00,60.00,Friday
8,456086267.8645724
2096,785101769.8652095
2,6, 1, 6, 0,17, 0.00,60.00,Friday
9,456086267.8645724
2244,456086267.8645724
2,6, 1, 6, 0,18, 0.00,60.00,Friday
8,183130295.60682762
2096,626343635.6703477
2,6, 1, 6, 0,18, 0.00,60.00,Friday
9,183130295.60682762
2244,183130295.60682765
2,6, 1, 6, 0,19, 0.00,60.00,Friday
8,120163990.25164744
2096,667376788.1247033
2,6, 1, 6, 0,19, 0.00,60.00,Friday
9,120163990.25164744
2244,120163990.25164743
2,6, 1, 6, 0,20, 0.00,60.00,Friday
8,115812113.79227124
2096,682663142.7781696
2,6, 1, 6, 0,20, 0.00,60.00,Friday
9,115812113.79227124
2244,115812113.79227126
2,6, 1, 6, 0,21, 0.00,60.00,Friday
8,115305346.79666184
2096,593884561.7282097
2,6, 1, 6, 0,21, 0.00,60.00,Friday
9,115305346.79666184
2244,115305346.79666188
2,6, 1, 6, 0,22, 0.00,60.00,Friday
8,117736877.6697178
2096,742927023.7179682
2,6, 1, 6, 0,22, 0.00,60.00,Friday
9,117736877.6697178
2244,117736877.6697178
2,6, 1, 6, 0,23, 0.00,60.00,Friday
8,118482880.52117433
2096,735426372.7948998
2,6, 1, 6, 0,23, 0.00,60.00,Friday
9,118482880.52117433
2244,118482880.52117433
2,6, 1, 6, 0,24, 0.00,60.00,Friday
8,116959263.37822658
2096,593767328.0049907
2,6, 1, 6, 0,24, 0.00,60.00,Friday
9,116959263.37822658
2244,116959263.3782266
3,6, 1, 6, 0,Friday
10,5819534396.053303,113510980.61570743, 5,60,469532505.35583055,10,60
2,7, 1, 7, 0, 1, 0.00,60.00,Saturday
8,118602265.30462405
2096,713395292.9416295
2,7, 1, 7, 0, 1, 0.00,60.00,Saturday
9,118602265.30462405
2244,118602265.30462405
2,7, 1, 7, 0, 2, 0.00,60.00,Saturday
8,117104952.33053216
2096,689454898.7677531
2,7, 1, 7, 0, 2, 0.00,60.00,Saturday
9,117104952.33053216
2244,117104952.3305322
2,7, 1, 7, 0, 3, 0.00,60.00,Saturday
8,116980657.84091507
2096,671122393.9088778
2,7, 1, 7, 0, 3, 0.00,60.00,Saturday
9,116980657.84091507
2244,116980657.8409151
2,7, 1, 7, 0, 4, 0.00,60.00,Saturday
8,115960460.70958683
2096,570868483.8633193
2,7, 1, 7, 0, 4, 0.00,60.00,Saturday
9,115960460.70958683
2244,115960460.70958683
2,7, 1, 7, 0, 5, 0.00,60.00,Saturday
8,117004259.54247244
2096,661343978.3884889
2,7, 1, 7, 0, 5, 0.00,60.00,Saturday
9,117004259.54247244
2244,117004259.54247247
2,7, 1, 7, 0, 6, 0.00,60.00,Saturday
8,117576425.5346049
2096,691396319.4789364
2,7, 1, 7, 0, 6, 0.00,60.00,Saturday
9,117576425.5346049
2244,117576425.5346049
2,7, 1, 7, 0, 7, 0.00,60.00,Saturday
8,141823770.773544
2096,703365950.8563724
2,7, 1, 7, 0, 7, 0.00,60.00,Saturday
9,141823770.773544
2244,141823770.77354398
2,7, 1, 7, 0, 8, 0.00,60.00,Saturday
8,191746312.60255194
2096,610333907.8757597
2,7, 1, 7, 0, 8, 0.00,60.00,Saturday
9,191746312.60255194
2244,191746312.60255194
2,7, 1, 7, 0, 9, 0.00,60.00,Saturday
8,462723715.7809866
2096,556091863.5305438
2,7, 1, 7, 0, 9, 0.00,60.00,Saturday
9,462723715.7809866
2244,462723715.78098655
2,7, 1, 7, 0,10, 0.00,60.00,Saturday
8,470827627.89900935
2096,448496946.8777402
2,7, 1, 7, 0,10, 0.00,60.00,Saturday
9,470827627.89900935
2244,470827627.89900947
2,7, 1, 7, 0,11, 0.00,60.00,Saturday
8,452344507.0998271
2096,359442538.49418205
2,7, 1, 7, 0,11, 0.00,60.00,Saturday
9,452344507.0998271
2244,452344507.0998271
2,7, 1, 7, 0,12, 0.00,60.00,Saturday
8,449963566.0421669
2096,371711021.26822203
2,7, 1, 7, 0,12, 0.00,60.00,Saturday
9,449963566.0421669
2244,449963566.04216695
2,7, 1, 7, 0,13, 0.00,60.00,Saturday
8,210129277.11959282
2096,379198409.15372777
2,7, 1, 7, 0,13, 0.00,60.00,Saturday
9,210129277.11959282
2244,210129277.11959282
2,7, 1, 7, 0,14, 0.00,60.00,Saturday
8,450767999.9213471
2096,355854949.13512486
2,7, 1, 7, 0,14, 0.00,60.00,Saturday
9,450767999.9213471
2244,450767999.92134714
2,7, 1, 7, 0,15, 0.00,60.00,Saturday
8,457932400.95139927
2096,379986759.9878951
2,7, 1, 7, 0,15, 0.00,60.00,Saturday
9,457932400.95139927
2244,457932400.9513994
2,7, 1, 7, 0,16, 0.00,60.00,Saturday
8,465844197.4704242
2096,390757763.3911751
2,7, 1, 7, 0,16, 0.00,60.00,Saturday
9,465844197.4704242
2244,465844197.4704242
2,7, 1, 7, 0,17, 0.00,60.00,Saturday
8,454631831.2685795
2096,444754844.2080267
2,7, 1, 7, 0,17, 0.00,60.00,Saturday
9,454631831.2685795
2244,454631831.2685795
2,7, 1, 7, 0,18, 0.00,60.00,Saturday
8,183416915.0642959
2096,457175581.77480406
2,7, 1, 7, 0,18, 0.00,60.00,Saturday
9,183416915.0642959
2244,183416915.06429592
2,7, 1, 7, 0,19, 0.00,60.00,Saturday
8,121661761.3519126
2096,513738334.1470312
2,7, 1, 7, 0,19, 0.00,60.00,Saturday
9,121661761.3519126
2244,121661761.35191262
2,7, 1, 7, 0,20, 0.00,60.00,Saturday
8,117169911.02183853
2096,562568725.3403679
2,7, 1, 7, 0,20, 0.00,60.00,Saturday
9,117169911.02183853
2244,117169911.02183853
2,7, 1, 7, 0,21, 0.00,60.00,Saturday
8,117564258.05541736
2096,595708311.1609085
2,7, 1, 7, 0,21, 0.00,60.00,Saturday
9,117564258.05541736
2244,117564258.05541739
2,7, 1, 7, 0,22, 0.00,60.00,Saturday
8,117226883.12342669
2096,558774427.5129957
2,7, 1, 7, 0,22, 0.00,60.00,Saturday
9,117226883.12342669
2244,117226883.12342669
2,7, 1, 7, 0,23, 0.00,60.00,Saturday
8,155552851.52263486
2096,707502767.6474987
2,7, 1, 7, 0,23, 0.00,60.00,Saturday
9,155552851.52263486
2244,155552851.5226349
2,7, 1, 7, 0,24, 0.00,60.00,Saturday
8,121707123.90700601
2096,689988480.1531506
2,7, 1, 7, 0,24, 0.00,60.00,Saturday
9,121707123.90700601
2244,121707123.90700603
3,7, 1, 7, 0,Saturday
10,5846263932.238694,115960460.70958683, 4,60,470827627.89900935,10,60
2,8, 1, 8, 0, 1, 0.00,60.00,Sunday
8,34891609.99194377
2096,534186077.50037503
2,8, 1, 8, 0, 1, 0.00,60.00,Sunday
9,34891609.99194377
2244,34891609.99194378
2,8, 1, 8, 0, 2, 0.00,60.00,Sunday
8,34356415.35025996
2096,553054316.1643608
2,8, 1, 8, 0, 2, 0.00,60.00,Sunday
9,34356415.35025996
2244,34356415.35025996
2,8, 1, 8, 0, 3, 0.00,60.00,Sunday
8,35112578.41689074
2096,522836975.33260214
2,8, 1, 8, 0, 3, 0.00,60.00,Sunday
9,35112578.41689074
2244,35112578.41689074
2,8, 1, 8, 0, 4, 0.00,60.00,Sunday
8,35762288.41629836
2096,519167000.0190484
2,8, 1, 8, 0, 4, 0.00,60.00,Sunday
9,35762288.41629836
2244,35762288.41629836
2,8, 1, 8, 0, 5, 0.00,60.00,Sunday
8,35678081.65680295
2096,502279793.21018285
2,8, 1, 8, 0, 5, 0.00,60.00,Sunday
9,35678081.65680295
2244,35678081.656802945
2,8, 1, 8, 0, 6, 0.00,60.00,Sunday
8,35083885.456467584
2096,442626031.1391213
2,8, 1, 8, 0, 6, 0.00,60.00,Sunday
9,35083885.456467584
2244,35083885.45646759
2,8, 1, 8, 0, 7, 0.00,60.00,Sunday
8,37881674.67384504
2096,565303826.2858396
2,8, 1, 8, 0, 7, 0.00,60.00,Sunday
9,37881674.67384504
2244,37881674.673845045
2,8, 1, 8, 0, 8, 0.00,60.00,Sunday
8,37794489.81377315
2096,555528944.5261066
2,8, 1, 8, 0, 8, 0.00,60.00,Sunday
9,37794489.81377315
2244,37794489.81377313
2,8, 1, 8, 0, 9, 0.00,60.00,Sunday
8,37663675.89032182
2096,450405226.37313133
2,8, 1, 8, 0, 9, 0.00,60.00,Sunday
9,37663675.89032182
2244,37663675.89032181
2,8, 1, 8, 0,10, 0.00,60.00,Sunday
8,36854044.733999275
2096,481746276.4770129